+----------------------------+
| Elk version 8.8.26 started |
+----------------------------+
 
Date (YYYY-MM-DD) : 2023-08-02
Time (hh:mm:ss)   : 11:47:10
 
All units are atomic (Hartree, Bohr, etc.)
 
+-------------------------------------------------+
| Ground-state run starting from atomic densities |
+-------------------------------------------------+
 
Lattice vectors :
   3.955480238       3.955480238       0.000000000    
   3.955480238      -3.955480238       0.000000000    
   3.955480238       0.000000000       3.955480238    
 
Reciprocal lattice vectors :
  0.7942379849      0.7942379849     -0.7942379849    
  0.7942379849     -0.7942379849     -0.7942379849    
   0.000000000       0.000000000       1.588475970    
 
Unit cell volume      :    123.7734946    
Brillouin zone volume :    2.004065687    
 
Muffin-tin inner radius fraction :   0.1000000000E-01
 
Species :    1 (Ni)
 parameters loaded from : Ni.in
 name : nickel
 nuclear charge    :   -28.00000000    
 electronic charge :    28.00000000    
 atomic mass :    106991.5230    
 muffin-tin radius :    2.231702993    
 number of radial points in muffin-tin :    997
 number on inner part of muffin-tin    :    713
 atomic positions (lattice), magnetic fields (Cartesian) :
   1 :   0.00000000  0.00000000  0.00000000    0.00000000  0.00000000  0.00000000
 
Species :    2 (O)
 parameters loaded from : O.in
 name : oxygen
 nuclear charge    :   -8.000000000    
 electronic charge :    8.000000000    
 atomic mass :    29165.12202    
 muffin-tin radius :    1.673777245    
 number of radial points in muffin-tin :    597
 number on inner part of muffin-tin    :    417
 atomic positions (lattice), magnetic fields (Cartesian) :
   1 :   0.50000000  0.50000000  0.00000000    0.00000000  0.00000000  0.00000000
 
Total number of atoms per unit cell :    2
 
Spin treatment :
 spin-polarised
 spin-orbit coupling
 global magnetic field (Cartesian) :    0.000000000       0.000000000       0.000000000    
 non-collinear magnetisation
 
Number of Bravais lattice symmetries :   48
Number of crystal symmetries         :   48
Crystal has inversion symmetry
Real symmetric eigensolver will be used
 
k-point grid :      2     2     2
k-point offset :    0.000000000       0.000000000       0.000000000    
k-point set is reduced with full crystal symmetry group
Total number of k-points :        3
 
Muffin-tin radius times maximum |G+k| :    7.000000000    
 using average radius
Maximum |G+k| for APW functions       :    3.584706399    
Maximum (1/2)|G+k|²                   :    6.425059983    
Maximum |G| for potential and density :    25.00000000    
Constant for pseudocharge density :   14
Radial integration step length :    4
 
G-vector grid sizes :     45    45    45
Number of G-vectors :    32647
 
Maximum angular momentum used for
 APW functions                      :   12
 outer part of muffin-tin           :    8
 inner part of muffin-tin           :    1
 
Total nuclear charge    :   -36.00000000    
Total core charge       :    14.00000000    
Total valence charge    :    22.00000000    
Total excess charge     :    0.000000000    
Total electronic charge :    36.00000000    
 
Effective Wigner radius, rₛ :   0.9362938720    
 
Number of empty states         :   20
Total number of valence states :   64
Total number of core states    :   14
 
Conduction state local-orbitals added automatically
Total number of local-orbitals :  232
 
Exchange-correlation functional :     20     0     0
 Perdew-Burke-Ernzerhof, Phys. Rev. Lett. 77, 3865 (1996)
 Generalised gradient approximation (GGA)
 
DFT+U calculation
 fully localised limit (FLL)
 see Phys. Rev. B 52, R5467 (1995)
 species :    1 (Ni), l =  2
 Slater integrals are calculated by means of Yukawa potential
 Yukawa potential screening length corresponds to U =   0.30000000
 
Smearing type :    3
 Fermi-Dirac
Smearing width :   0.1000000000E-03
Effective electronic temperature (K) :    31.57750248    
 
Mixing type :    1
 Adaptive linear mixing
 
Kohn-Sham potential initialised from atomic data
 
+------------------------------+
| Self-consistent loop started |
+------------------------------+
 
+--------------------+
| Loop number :    1 |
+--------------------+
 
Energies :
 Fermi                       :     0.100284456960    
 sum of eigenvalues          :     -916.873551358    
 electron kinetic            :      1613.39835586    
 core electron kinetic       :      1444.61517151    
 Coulomb                     :     -3146.77361645    
 Coulomb potential           :     -2436.30598487    
 nuclear-nuclear             :     -224.268728362    
 electron-nuclear            :     -3408.70379131    
 Hartree                     :      486.198903222    
 Madelung                    :     -1928.62062402    
 xc potential                :     -93.9659223508    
 xc effective B-field        :    -0.188111941326E-19
 external B-field            :      0.00000000000    
 exchange                    :     -70.8057675240    
 correlation                 :     -1.60848559054    
 DFT+U                       :     0.893594271601    
 electron entropic           :    -0.121648592826E-16
 total energy                :     -1604.89591943    
 (external B-field energy excluded from total)
 
Density of states at Fermi energy :   0.3554486632E-10
 (states/Hartree/unit cell)
 
Estimated indirect band gap :   0.5867789169E-01
 from k-point      3 to k-point      2
Estimated direct band gap   :   0.6286406056E-01
 at k-point      2
 
Charges :
 core                        :    14.00000000    
 valence                     :    22.00000000    
 interstitial                :    1.773348190    
 muffin-tins (core leakage)
  species :    1 (Ni)
   atom    1                 :    26.78054889     (  0.6557375147E-03)
  species :    2 (O)
   atom    1                 :    7.446102917     (  0.4498777613E-07)
 total in muffin-tins        :    34.22665181    
 total calculated charge     :    35.99850208    
 total charge                :    36.00000000    
 error                       :   0.1497916529E-02
 
Moments :
 interstitial                :  -0.5012201026E-27  0.2438004800E-26  0.3258719288E-27
 muffin-tins
  species :    1 (Ni)
   atom    1                 :   0.2022996643E-27 -0.2526858793E-27  0.1098348429E-26
  species :    2 (O)
   atom    1                 :  -0.6786158702E-27 -0.5115851585E-27  0.6818525983E-27
 total in muffin-tins        :  -0.4763162060E-27 -0.7642710377E-27  0.1780201028E-26
 total moment                :  -0.9775363085E-27  0.1673733763E-26  0.2106072956E-26
 
Time (CPU seconds) :         6.51
 
+--------------------+
| Loop number :    2 |
+--------------------+
 
Energies :
 Fermi                       :     0.833405732339E-01
 sum of eigenvalues          :     -916.644382093    
 electron kinetic            :      1611.69271677    
 core electron kinetic       :      1444.09112325    
 Coulomb                     :     -3147.64020716    
 Coulomb potential           :     -2434.23819904    
 nuclear-nuclear             :     -224.268728362    
 electron-nuclear            :     -3412.50475856    
 Hartree                     :      489.133279761    
 Madelung                    :     -1930.52110764    
 xc potential                :     -94.0988998244    
 xc effective B-field        :    -0.143365905836E-18
 external B-field            :      0.00000000000    
 exchange                    :     -70.9027873168    
 correlation                 :     -1.61104592956    
 DFT+U                       :     0.931046417539    
 electron entropic           :    -0.121648592826E-16
 total energy                :     -1607.53027722    
 (external B-field energy excluded from total)
 
Density of states at Fermi energy :   0.3554483117E-10
 (states/Hartree/unit cell)
 
Estimated indirect band gap :   0.7154240405E-01
 from k-point      3 to k-point      2
Estimated direct band gap   :   0.1286742927    
 at k-point      2
 
Charges :
 core                        :    14.00000000    
 valence                     :    22.00000000    
 interstitial                :    1.743027122    
 muffin-tins (core leakage)
  species :    1 (Ni)
   atom    1                 :    26.97421375     (  0.6652082824E-03)
  species :    2 (O)
   atom    1                 :    7.282759132     (  0.4532623035E-07)
 total in muffin-tins        :    34.25697288    
 total calculated charge     :    35.99849726    
 total charge                :    36.00000000    
 error                       :   0.1502740631E-02
 
Moments :
 interstitial                :   0.1055174951E-26  0.5652835613E-26 -0.3044214365E-26
 muffin-tins
  species :    1 (Ni)
   atom    1                 :  -0.2729472130E-26 -0.1432077350E-25 -0.1077160517E-25
  species :    2 (O)
   atom    1                 :   0.2149025144E-26  0.1080020929E-25 -0.1329526184E-26
 total in muffin-tins        :  -0.5804469867E-27 -0.3520564213E-26 -0.1210113135E-25
 total moment                :   0.4747279645E-27  0.2132271400E-26 -0.1514534572E-25
 
RMS change in Kohn-Sham potential (target) :   0.4059173661     (  0.1000000000E-06)
Absolute change in total energy (target)   :    2.634357787     (  0.1000000000E-05)
 
Time (CPU seconds) :         9.81
 
+--------------------+
| Loop number :    3 |
+--------------------+
 
Energies :
 Fermi                       :     0.122371122736    
 sum of eigenvalues          :     -914.928297755    
 electron kinetic            :      1614.34645456    
 core electron kinetic       :      1444.18342807    
 Coulomb                     :     -3145.56366035    
 Coulomb potential           :     -2435.40480053    
 nuclear-nuclear             :     -224.268728362    
 electron-nuclear            :     -3407.18506346    
 Hartree                     :      485.890131462    
 Madelung                    :     -1927.86126009    
 xc potential                :     -93.8699517834    
 xc effective B-field        :    -0.240444000983E-18
 external B-field            :      0.00000000000    
 exchange                    :     -70.7313746033    
 correlation                 :     -1.60917948797    
 DFT+U                       :     0.915323403188    
 electron entropic           :    -0.121648592826E-16
 total energy                :     -1602.64243648    
 (external B-field energy excluded from total)
 
Density of states at Fermi energy :   0.3554487518E-10
 (states/Hartree/unit cell)
 
Estimated indirect band gap :   0.6743847142E-01
 from k-point      3 to k-point      2
Estimated direct band gap   :   0.1241497861    
 at k-point      2
 
Charges :
 core                        :    14.00000000    
 valence                     :    22.00000000    
 interstitial                :    1.777927321    
 muffin-tins (core leakage)
  species :    1 (Ni)
   atom    1                 :    26.88247531     (  0.6909619560E-03)
  species :    2 (O)
   atom    1                 :    7.339597371     (  0.4545389786E-07)
 total in muffin-tins        :    34.22207268    
 total calculated charge     :    35.99846023    
 total charge                :    36.00000000    
 error                       :   0.1539774598E-02
 
Moments :
 interstitial                :   0.5190772259E-26 -0.3936796230E-26  0.6751144706E-26
 muffin-tins
  species :    1 (Ni)
   atom    1                 :  -0.5240475388E-26  0.9497228644E-26 -0.8094738236E-26
  species :    2 (O)
   atom    1                 :   0.7545157464E-27 -0.1061392722E-25  0.1197762780E-25
 total in muffin-tins        :  -0.4485959641E-26 -0.1116698572E-26  0.3882889564E-26
 total moment                :   0.7048126178E-27 -0.5053494802E-26  0.1063403427E-25
 
RMS change in Kohn-Sham potential (target) :   0.3378668709     (  0.1000000000E-06)
Absolute change in total energy (target)   :    4.229251289     (  0.1000000000E-05)
 
Time (CPU seconds) :        13.17
 
+--------------------+
| Loop number :    4 |
+--------------------+
 
Energies :
 Fermi                       :     0.161145732694    
 sum of eigenvalues          :     -913.566429250    
 electron kinetic            :      1616.12222245    
 core electron kinetic       :      1444.36973610    
 Coulomb                     :     -3144.36666819    
 Coulomb potential           :     -2435.96013538    
 nuclear-nuclear             :     -224.268728362    
 electron-nuclear            :     -3404.23574427    
 Hartree                     :      484.137804443    
 Madelung                    :     -1926.38660050    
 xc potential                :     -93.7285163182    
 xc effective B-field        :    -0.111243322015E-20
 external B-field            :      0.00000000000    
 exchange                    :     -70.6244107201    
 correlation                 :     -1.60869378964    
 DFT+U                       :     0.907489069514    
 electron entropic           :    -0.121648592826E-16
 total energy                :     -1599.57006118    
 (external B-field energy excluded from total)
 
Density of states at Fermi energy :   0.3554481951E-10
 (states/Hartree/unit cell)
 
Estimated indirect band gap :   0.6567899439E-01
 from k-point      3 to k-point      2
Estimated direct band gap   :   0.1210494697    
 at k-point      1
 
Charges :
 core                        :    14.00000000    
 valence                     :    22.00000000    
 interstitial                :    1.809034653    
 muffin-tins (core leakage)
  species :    1 (Ni)
   atom    1                 :    26.84349783     (  0.7049155876E-03)
  species :    2 (O)
   atom    1                 :    7.347467515     (  0.4574099211E-07)
 total in muffin-tins        :    34.19096535    
 total calculated charge     :    35.99842705    
 total charge                :    36.00000000    
 error                       :   0.1572946236E-02
 
Moments :
 interstitial                :  -0.2867871843E-26  0.1092823034E-26 -0.3975198646E-26
 muffin-tins
  species :    1 (Ni)
   atom    1                 :   0.4182516913E-26  0.1420526535E-27  0.3951781298E-26
  species :    2 (O)
   atom    1                 :  -0.7894748090E-27 -0.2505754014E-27 -0.1110397737E-26
 total in muffin-tins        :   0.3393042104E-26 -0.1085227479E-27  0.2841383562E-26
 total moment                :   0.5251702615E-27  0.9843002860E-27 -0.1133815085E-26
 
RMS change in Kohn-Sham potential (target) :   0.2749271433     (  0.1000000000E-06)
Absolute change in total energy (target)   :    4.129688129     (  0.1000000000E-05)
 
Time (CPU seconds) :        16.37
 
+--------------------+
| Loop number :    5 |
+--------------------+
 
Energies :
 Fermi                       :     0.187491471768    
 sum of eigenvalues          :     -912.642174386    
 electron kinetic            :      1616.91958331    
 core electron kinetic       :      1444.42966817    
 Coulomb                     :     -3144.14374689    
 Coulomb potential           :     -2435.87070162    
 nuclear-nuclear             :     -224.268728362    
 electron-nuclear            :     -3403.87933543    
 Hartree                     :      484.004316903    
 Madelung                    :     -1926.20839608    
 xc potential                :     -93.6910560708    
 xc effective B-field        :    -0.299740763930E-18
 external B-field            :      0.00000000000    
 exchange                    :     -70.5948839402    
 correlation                 :     -1.60934560410    
 DFT+U                       :     0.909624292269    
 electron entropic           :    -0.121648592826E-16
 total energy                :     -1598.51876883    
 (external B-field energy excluded from total)
 
Density of states at Fermi energy :   0.3554487109E-10
 (states/Hartree/unit cell)
 
Estimated indirect band gap :   0.6717432557E-01
 from k-point      3 to k-point      2
Estimated direct band gap   :   0.1193116016    
 at k-point      1
 
Charges :
 core                        :    14.00000000    
 valence                     :    22.00000000    
 interstitial                :    1.825604200    
 muffin-tins (core leakage)
  species :    1 (Ni)
   atom    1                 :    26.86521656     (  0.7084529388E-03)
  species :    2 (O)
   atom    1                 :    7.309179241     (  0.4602738288E-07)
 total in muffin-tins        :    34.17439580    
 total calculated charge     :    35.99841161    
 total charge                :    36.00000000    
 error                       :   0.1588387046E-02
 
Moments :
 interstitial                :   0.9385824736E-26 -0.3511078020E-26 -0.1327626376E-25
 muffin-tins
  species :    1 (Ni)
   atom    1                 :   0.2584131743E-26 -0.1902879299E-26 -0.3242996271E-26
  species :    2 (O)
   atom    1                 :   0.2009035241E-27  0.2526924771E-26 -0.1031174033E-25
 total in muffin-tins        :   0.2785035267E-26  0.6240454720E-27 -0.1355473660E-25
 total moment                :   0.1217086000E-25 -0.2887032548E-26 -0.2683100036E-25
 
RMS change in Kohn-Sham potential (target) :   0.2120090120     (  0.1000000000E-06)
Absolute change in total energy (target)   :    2.083714377     (  0.1000000000E-05)
 
Time (CPU seconds) :        19.58
 
+--------------------+
| Loop number :    6 |
+--------------------+
 
Energies :
 Fermi                       :     0.209004379918    
 sum of eigenvalues          :     -911.857069767    
 electron kinetic            :      1617.73414874    
 core electron kinetic       :      1444.54087834    
 Coulomb                     :     -3143.97898866    
 Coulomb potential           :     -2435.92491943    
 nuclear-nuclear             :     -224.268728362    
 electron-nuclear            :     -3403.49560116    
 Hartree                     :      483.785340867    
 Madelung                    :     -1926.01652894    
 xc potential                :     -93.6662990771    
 xc effective B-field        :    -0.193752180249E-18
 external B-field            :      0.00000000000    
 exchange                    :     -70.5759036420    
 correlation                 :     -1.60941367229    
 DFT+U                       :     0.909641018908    
 electron entropic           :    -0.121648592826E-16
 total energy                :     -1597.52051621    
 (external B-field energy excluded from total)
 
Density of states at Fermi energy :   0.3554487412E-10
 (states/Hartree/unit cell)
 
Estimated indirect band gap :   0.6758860014E-01
 from k-point      3 to k-point      2
Estimated direct band gap   :   0.1184442079    
 at k-point      1
 
Charges :
 core                        :    14.00000000    
 valence                     :    22.00000000    
 interstitial                :    1.831858122    
 muffin-tins (core leakage)
  species :    1 (Ni)
   atom    1                 :    26.86808141     (  0.7116870610E-03)
  species :    2 (O)
   atom    1                 :    7.300060471     (  0.4607364549E-07)
 total in muffin-tins        :    34.16814188    
 total calculated charge     :    35.99839873    
 total charge                :    36.00000000    
 error                       :   0.1601269232E-02
 
Moments :
 interstitial                :   0.2379029662E-26  0.2685974686E-26 -0.4191075084E-26
 muffin-tins
  species :    1 (Ni)
   atom    1                 :   0.1834552020E-27 -0.1653372292E-27 -0.9192050911E-28
  species :    2 (O)
   atom    1                 :   0.7772421607E-27  0.1030204852E-26  0.4284312094E-26
 total in muffin-tins        :   0.9606973627E-27  0.8648676225E-27  0.4192391585E-26
 total moment                :   0.3339727024E-26  0.3550842308E-26  0.1316501485E-29
 
RMS change in Kohn-Sham potential (target) :   0.1505771644     (  0.1000000000E-06)
Absolute change in total energy (target)   :    1.519181213     (  0.1000000000E-05)
 
Time (CPU seconds) :        22.75
 
+--------------------+
| Loop number :    7 |
+--------------------+
 
Energies :
 Fermi                       :     0.225640021443    
 sum of eigenvalues          :     -911.288811401    
 electron kinetic            :      1618.33527388    
 core electron kinetic       :      1444.62523486    
 Coulomb                     :     -3143.96667690    
 Coulomb potential           :     -2435.96369296    
 nuclear-nuclear             :     -224.268728362    
 electron-nuclear            :     -3403.43220411    
 Hartree                     :      483.734255573    
 Madelung                    :     -1925.98483042    
 xc potential                :     -93.6603923187    
 xc effective B-field        :    -0.529032839687E-19
 external B-field            :      0.00000000000    
 exchange                    :     -70.5714239052    
 correlation                 :     -1.60938238423    
 DFT+U                       :     0.909626447472    
 electron entropic           :    -0.121648592826E-16
 total energy                :     -1596.90258286    
 (external B-field energy excluded from total)
 
Density of states at Fermi energy :   0.3554424224E-10
 (states/Hartree/unit cell)
 
Estimated indirect band gap :   0.6766672464E-01
 from k-point      3 to k-point      2
Estimated direct band gap   :   0.1180941783    
 at k-point      1
 
Charges :
 core                        :    14.00000000    
 valence                     :    22.00000000    
 interstitial                :    1.832739521    
 muffin-tins (core leakage)
  species :    1 (Ni)
   atom    1                 :    26.86871530     (  0.7126761504E-03)
  species :    2 (O)
   atom    1                 :    7.298545179     (  0.4604014579E-07)
 total in muffin-tins        :    34.16726048    
 total calculated charge     :    35.99838919    
 total charge                :    36.00000000    
 error                       :   0.1610808550E-02
 
Moments :
 interstitial                :  -0.5954045990E-26  0.2070438820E-26 -0.9990114180E-26
 muffin-tins
  species :    1 (Ni)
   atom    1                 :  -0.1736360255E-28 -0.4465637948E-26 -0.7258676968E-26
  species :    2 (O)
   atom    1                 :   0.8167397585E-27 -0.1427214948E-26  0.3127441467E-26
 total in muffin-tins        :   0.7993761560E-27 -0.5892852896E-26 -0.4131235501E-26
 total moment                :  -0.5154669834E-26 -0.3822414076E-26 -0.1412134968E-25
 
RMS change in Kohn-Sham potential (target) :   0.9896787859E-01 (  0.1000000000E-06)
Absolute change in total energy (target)   :   0.9977286567     (  0.1000000000E-05)
 
Time (CPU seconds) :        25.91
 
+--------------------+
| Loop number :    8 |
+--------------------+
 
Energies :
 Fermi                       :     0.237599942176    
 sum of eigenvalues          :     -910.886624826    
 electron kinetic            :      1618.77579075    
 core electron kinetic       :      1444.68146411    
 Coulomb                     :     -3144.01772485    
 Coulomb potential           :     -2435.99988805    
 nuclear-nuclear             :     -224.268728362    
 electron-nuclear            :     -3403.49810492    
 Hartree                     :      483.749108439    
 Madelung                    :     -1926.01778082    
 xc potential                :     -93.6625275287    
 xc effective B-field        :    -0.364710165692E-21
 external B-field            :      0.00000000000    
 exchange                    :     -70.5725384329    
 correlation                 :     -1.60930992568    
 DFT+U                       :     0.909783592442    
 electron entropic           :    -0.121648592826E-16
 total energy                :     -1596.51399886    
 (external B-field energy excluded from total)
 
Density of states at Fermi energy :   0.3554487792E-10
 (states/Hartree/unit cell)
 
Estimated indirect band gap :   0.6771180890E-01
 from k-point      3 to k-point      2
Estimated direct band gap   :   0.1181098446    
 at k-point      1
 
Charges :
 core                        :    14.00000000    
 valence                     :    22.00000000    
 interstitial                :    1.832079376    
 muffin-tins (core leakage)
  species :    1 (Ni)
   atom    1                 :    26.86976572     (  0.7128406702E-03)
  species :    2 (O)
   atom    1                 :    7.298154908     (  0.4602017476E-07)
 total in muffin-tins        :    34.16792062    
 total calculated charge     :    35.99838981    
 total charge                :    36.00000000    
 error                       :   0.1610188191E-02
 
Moments :
 interstitial                :  -0.1533010726E-26 -0.3422203858E-26  0.3610615711E-26
 muffin-tins
  species :    1 (Ni)
   atom    1                 :   0.3742949117E-26  0.8886646024E-26 -0.4639676905E-27
  species :    2 (O)
   atom    1                 :   0.5547502996E-26 -0.1625499156E-25 -0.7042637055E-26
 total in muffin-tins        :   0.9290452113E-26 -0.7368345537E-26 -0.7506604746E-26
 total moment                :   0.7757441388E-26 -0.1079054939E-25 -0.3895989035E-26
 
RMS change in Kohn-Sham potential (target) :   0.5605013416E-01 (  0.1000000000E-06)
Absolute change in total energy (target)   :   0.6380161600     (  0.1000000000E-05)
 
Time (CPU seconds) :        29.15
 
+--------------------+
| Loop number :    9 |
+--------------------+
 
Energies :
 Fermi                       :     0.245699972386    
 sum of eigenvalues          :     -910.609186537    
 electron kinetic            :      1619.06154283    
 core electron kinetic       :      1444.72526029    
 Coulomb                     :     -3144.02914066    
 Coulomb potential           :     -2436.00845924    
 nuclear-nuclear             :     -224.268728362    
 electron-nuclear            :     -3403.51236535    
 Hartree                     :      483.751953052    
 Madelung                    :     -1926.02491104    
 xc potential                :     -93.6622701221    
 xc effective B-field        :    -0.115045843083E-19
 external B-field            :      0.00000000000    
 exchange                    :     -70.5722855293    
 correlation                 :     -1.60928276668    
 DFT+U                       :     0.909849941418    
 electron entropic           :    -0.121648592826E-16
 total energy                :     -1596.23931618    
 (external B-field energy excluded from total)
 
Density of states at Fermi energy :   0.3554486517E-10
 (states/Hartree/unit cell)
 
Estimated indirect band gap :   0.6772958632E-01
 from k-point      3 to k-point      2
Estimated direct band gap   :   0.1181424929    
 at k-point      1
 
Charges :
 core                        :    14.00000000    
 valence                     :    22.00000000    
 interstitial                :    1.831677045    
 muffin-tins (core leakage)
  species :    1 (Ni)
   atom    1                 :    26.87022362     (  0.7129483852E-03)
  species :    2 (O)
   atom    1                 :    7.298099332     (  0.4601883731E-07)
 total in muffin-tins        :    34.16832295    
 total calculated charge     :    35.99838585    
 total charge                :    36.00000000    
 error                       :   0.1614148376E-02
 
Moments :
 interstitial                :  -0.3848882128E-26  0.1702872840E-26 -0.2564732773E-26
 muffin-tins
  species :    1 (Ni)
   atom    1                 :   0.2654999679E-26 -0.9962065688E-27  0.1263954221E-26
  species :    2 (O)
   atom    1                 :   0.8460428423E-27 -0.4378741857E-26 -0.1504869285E-26
 total in muffin-tins        :   0.3501042521E-26 -0.5374948425E-26 -0.2409150631E-27
 total moment                :  -0.3478396074E-27 -0.3672075586E-26 -0.2805647836E-26
 
RMS change in Kohn-Sham potential (target) :   0.3130235454E-01 (  0.1000000000E-06)
Absolute change in total energy (target)   :   0.4341867209     (  0.1000000000E-05)
 
Time (CPU seconds) :        32.46
 
+--------------------+
| Loop number :   10 |
+--------------------+
 
Energies :
 Fermi                       :     0.250660860714    
 sum of eigenvalues          :     -910.438285934    
 electron kinetic            :      1619.23925879    
 core electron kinetic       :      1444.75633360    
 Coulomb                     :     -3144.03269940    
 Coulomb potential           :     -2436.01542166    
 nuclear-nuclear             :     -224.268728362    
 electron-nuclear            :     -3403.51252041    
 Hartree                     :      483.748549376    
 Madelung                    :     -1926.02498857    
 xc potential                :     -93.6621230639    
 xc effective B-field        :    -0.365943913594E-19
 external B-field            :      0.00000000000    
 exchange                    :     -70.5721238978    
 correlation                 :     -1.60925058678    
 DFT+U                       :     0.909833978795    
 electron entropic           :    -0.121648592826E-16
 total energy                :     -1596.06498111    
 (external B-field energy excluded from total)
 
Density of states at Fermi energy :   0.3554427249E-10
 (states/Hartree/unit cell)
 
Estimated indirect band gap :   0.6770629244E-01
 from k-point      3 to k-point      2
Estimated direct band gap   :   0.1181442327    
 at k-point      1
 
Charges :
 core                        :    14.00000000    
 valence                     :    22.00000000    
 interstitial                :    1.831191801    
 muffin-tins (core leakage)
  species :    1 (Ni)
   atom    1                 :    26.87002830     (  0.7129798911E-03)
  species :    2 (O)
   atom    1                 :    7.298779896     (  0.4602802161E-07)
 total in muffin-tins        :    34.16880820    
 total calculated charge     :    35.99838351    
 total charge                :    36.00000000    
 error                       :   0.1616485052E-02
 
Moments :
 interstitial                :   0.3492708293E-26  0.3980684706E-26 -0.4233043438E-26
 muffin-tins
  species :    1 (Ni)
   atom    1                 :   0.5475152775E-26 -0.7652051028E-26 -0.1564281236E-26
  species :    2 (O)
   atom    1                 :  -0.2528315932E-26  0.8711875497E-26 -0.2312730308E-26
 total in muffin-tins        :   0.2946836842E-26  0.1059824468E-26 -0.3877011544E-26
 total moment                :   0.6439545136E-26  0.5040509174E-26 -0.8110054982E-26
 
RMS change in Kohn-Sham potential (target) :   0.1597358560E-01 (  0.1000000000E-06)
Absolute change in total energy (target)   :   0.2828817504     (  0.1000000000E-05)
 
Time (CPU seconds) :        35.62
 
+--------------------+
| Loop number :   11 |
+--------------------+
 
Energies :
 Fermi                       :     0.253310572243    
 sum of eigenvalues          :     -910.346188810    
 electron kinetic            :      1619.32671521    
 core electron kinetic       :      1444.76877647    
 Coulomb                     :     -3144.04094782    
 Coulomb potential           :     -2436.01008277    
 nuclear-nuclear             :     -224.268728362    
 electron-nuclear            :     -3403.53435615    
 Hartree                     :      483.762136692    
 Madelung                    :     -1926.03590644    
 xc potential                :     -93.6628212491    
 xc effective B-field        :    -0.240921281359E-20
 external B-field            :      0.00000000000    
 exchange                    :     -70.5725811432    
 correlation                 :     -1.60924827079    
 DFT+U                       :     0.909947744984    
 electron entropic           :    -0.121648592826E-16
 total energy                :     -1595.98611428    
 (external B-field energy excluded from total)
 
Density of states at Fermi energy :   0.3554359346E-10
 (states/Hartree/unit cell)
 
Estimated indirect band gap :   0.6773538647E-01
 from k-point      3 to k-point      2
Estimated direct band gap   :   0.1182571268    
 at k-point      1
 
Charges :
 core                        :    14.00000000    
 valence                     :    22.00000000    
 interstitial                :    1.830852895    
 muffin-tins (core leakage)
  species :    1 (Ni)
   atom    1                 :    26.87071303     (  0.7128804677E-03)
  species :    2 (O)
   atom    1                 :    7.298434077     (  0.4602399337E-07)
 total in muffin-tins        :    34.16914711    
 total calculated charge     :    35.99838246    
 total charge                :    36.00000000    
 error                       :   0.1617537314E-02
 
Moments :
 interstitial                :   0.1145444630E-25 -0.3836949949E-26 -0.1307986284E-25
 muffin-tins
  species :    1 (Ni)
   atom    1                 :  -0.1957289341E-26 -0.1276864616E-25  0.1207783416E-25
  species :    2 (O)
   atom    1                 :  -0.3213748727E-26  0.7387822797E-26 -0.8537531293E-26
 total in muffin-tins        :  -0.5171038068E-26 -0.5380823365E-26  0.3540302868E-26
 total moment                :   0.6283408231E-26 -0.9217773314E-26 -0.9539559970E-26
 
RMS change in Kohn-Sham potential (target) :   0.7483563344E-02 (  0.1000000000E-06)
Absolute change in total energy (target)   :   0.1495872667     (  0.1000000000E-05)
 
Time (CPU seconds) :        38.75
 
+--------------------+
| Loop number :   12 |
+--------------------+
 
Energies :
 Fermi                       :     0.254799557953    
 sum of eigenvalues          :     -910.293143337    
 electron kinetic            :      1619.39173155    
 core electron kinetic       :      1444.78875952    
 Coulomb                     :     -3144.02527209    
 Coulomb potential           :     -2436.02358983    
 nuclear-nuclear             :     -224.268728362    
 electron-nuclear            :     -3403.48949762    
 Hartree                     :      483.732953893    
 Madelung                    :     -1926.01347717    
 xc potential                :     -93.6612850493    
 xc effective B-field        :    -0.415730289541E-21
 external B-field            :      0.00000000000    
 exchange                    :     -70.5714117582    
 correlation                 :     -1.60920863772    
 DFT+U                       :     0.909750086222    
 electron entropic           :    -0.121648592826E-16
 total energy                :     -1595.90441085    
 (external B-field energy excluded from total)
 
Density of states at Fermi energy :   0.3554486915E-10
 (states/Hartree/unit cell)
 
Estimated indirect band gap :   0.6765506424E-01
 from k-point      3 to k-point      2
Estimated direct band gap   :   0.1181063678    
 at k-point      1
 
Charges :
 core                        :    14.00000000    
 valence                     :    22.00000000    
 interstitial                :    1.830709942    
 muffin-tins (core leakage)
  species :    1 (Ni)
   atom    1                 :    26.86934877     (  0.7130326267E-03)
  species :    2 (O)
   atom    1                 :    7.299941285     (  0.4602036628E-07)
 total in muffin-tins        :    34.16929006    
 total calculated charge     :    35.99838165    
 total charge                :    36.00000000    
 error                       :   0.1618349390E-02
 
Moments :
 interstitial                :   0.1041802681E-26  0.1411014479E-26 -0.2848938080E-25
 muffin-tins
  species :    1 (Ni)
   atom    1                 :  -0.6009240139E-27 -0.3986032964E-26 -0.2359954784E-26
  species :    2 (O)
   atom    1                 :  -0.1704128191E-26 -0.1605509246E-26  0.1126306157E-26
 total in muffin-tins        :  -0.2305052205E-26 -0.5591542210E-26 -0.1233648627E-26
 total moment                :  -0.1263249524E-26 -0.4180527731E-26 -0.2972302943E-25
 
RMS change in Kohn-Sham potential (target) :   0.3128124712E-02 (  0.1000000000E-06)
Absolute change in total energy (target)   :   0.1191002481     (  0.1000000000E-05)
 
Time (CPU seconds) :        41.75
 
+--------------------+
| Loop number :   13 |
+--------------------+
 
Energies :
 Fermi                       :     0.255010885457    
 sum of eigenvalues          :     -910.285406867    
 electron kinetic            :      1619.36912062    
 core electron kinetic       :      1444.78333802    
 Coulomb                     :     -3144.05852587    
 Coulomb potential           :     -2435.98981768    
 nuclear-nuclear             :     -224.268728362    
 electron-nuclear            :     -3403.58977734    
 Hartree                     :      483.799979828    
 Madelung                    :     -1926.06361703    
 xc potential                :     -93.6647098012    
 xc effective B-field        :    -0.837337879245E-20
 external B-field            :      0.00000000000    
 exchange                    :     -70.5738950958    
 correlation                 :     -1.60927632239    
 DFT+U                       :     0.910258898148    
 electron entropic           :    -0.121648592826E-16
 total energy                :     -1595.96231778    
 (external B-field energy excluded from total)
 
Density of states at Fermi energy :   0.3554429463E-10
 (states/Hartree/unit cell)
 
Estimated indirect band gap :   0.6783760423E-01
 from k-point      3 to k-point      2
Estimated direct band gap   :   0.1185534855    
 at k-point      1
 
Charges :
 core                        :    14.00000000    
 valence                     :    22.00000000    
 interstitial                :    1.830506057    
 muffin-tins (core leakage)
  species :    1 (Ni)
   atom    1                 :    26.87269553     (  0.7126063351E-03)
  species :    2 (O)
   atom    1                 :    7.296798410     (  0.4602321924E-07)
 total in muffin-tins        :    34.16949394    
 total calculated charge     :    35.99838212    
 total charge                :    36.00000000    
 error                       :   0.1617879535E-02
 
Moments :
 interstitial                :   0.5190909411E-26 -0.1148780840E-26  0.1819314451E-26
 muffin-tins
  species :    1 (Ni)
   atom    1                 :  -0.6411658660E-27  0.1669847824E-27 -0.1314424494E-26
  species :    2 (O)
   atom    1                 :   0.1028565868E-26 -0.5335721144E-27 -0.8605265559E-27
 total in muffin-tins        :   0.3874000022E-27 -0.3665873321E-27 -0.2174951050E-26
 total moment                :   0.5578309413E-26 -0.1515368172E-26 -0.3556365995E-27
 
RMS change in Kohn-Sham potential (target) :   0.1594668403E-02 (  0.1000000000E-06)
Absolute change in total energy (target)   :   0.2813186150E-01 (  0.1000000000E-05)
 
Time (CPU seconds) :        44.85
 
+--------------------+
| Loop number :   14 |
+--------------------+
 
Energies :
 Fermi                       :     0.255678945171    
 sum of eigenvalues          :     -910.267156389    
 electron kinetic            :      1619.43300373    
 core electron kinetic       :      1444.79298727    
 Coulomb                     :     -3144.04117055    
 Coulomb potential           :     -2436.03775633    
 nuclear-nuclear             :     -224.268728362    
 electron-nuclear            :     -3403.50712804    
 Hartree                     :      483.734685858    
 Madelung                    :     -1926.02229238    
 xc potential                :     -93.6624037976    
 xc effective B-field        :    -0.623590225484E-19
 external B-field            :      0.00000000000    
 exchange                    :     -70.5722581219    
 correlation                 :     -1.60917629646    
 DFT+U                       :     0.909539621123    
 electron entropic           :    -0.121648592826E-16
 total energy                :     -1595.88006161    
 (external B-field energy excluded from total)
 
Density of states at Fermi energy :   0.3554487790E-10
 (states/Hartree/unit cell)
 
Estimated indirect band gap :   0.6755390555E-01
 from k-point      3 to k-point      2
Estimated direct band gap   :   0.1180133954    
 at k-point      1
 
Charges :
 core                        :    14.00000000    
 valence                     :    22.00000000    
 interstitial                :    1.830418988    
 muffin-tins (core leakage)
  species :    1 (Ni)
   atom    1                 :    26.86785710     (  0.7129272251E-03)
  species :    2 (O)
   atom    1                 :    7.301723917     (  0.4599439914E-07)
 total in muffin-tins        :    34.16958101    
 total calculated charge     :    35.99838091    
 total charge                :    36.00000000    
 error                       :   0.1619089089E-02
 
Moments :
 interstitial                :   0.8847985187E-26 -0.3858619884E-26 -0.4654647104E-26
 muffin-tins
  species :    1 (Ni)
   atom    1                 :   0.3208686010E-26 -0.3906064006E-26  0.2025295853E-26
  species :    2 (O)
   atom    1                 :   0.8401784977E-27  0.8796821748E-27  0.2007744495E-26
 total in muffin-tins        :   0.4048864508E-26 -0.3026381832E-26  0.4033040347E-26
 total moment                :   0.1289684969E-25 -0.6885001715E-26 -0.6216067565E-27
 
RMS change in Kohn-Sham potential (target) :   0.7157317898E-03 (  0.1000000000E-06)
Absolute change in total energy (target)   :   0.7522320270E-01 (  0.1000000000E-05)
 
Time (CPU seconds) :        48.05
 
+--------------------+
| Loop number :   15 |
+--------------------+
 
Energies :
 Fermi                       :     0.255585910486    
 sum of eigenvalues          :     -910.270543902    
 electron kinetic            :      1619.40786103    
 core electron kinetic       :      1444.78964580    
 Coulomb                     :     -3144.04509255    
 Coulomb potential           :     -2436.01512385    
 nuclear-nuclear             :     -224.268728362    
 electron-nuclear            :     -3403.53760451    
 Hartree                     :      483.761240329    
 Madelung                    :     -1926.03753062    
 xc potential                :     -93.6632810796    
 xc effective B-field        :    -0.428976839849E-19
 external B-field            :      0.00000000000    
 exchange                    :     -70.5728545651    
 correlation                 :     -1.60921531113    
 DFT+U                       :     0.909864196424    
 electron entropic           :    -0.121648592826E-16
 total energy                :     -1595.90943719    
 (external B-field energy excluded from total)
 
Density of states at Fermi energy :   0.3554427025E-10
 (states/Hartree/unit cell)
 
Estimated indirect band gap :   0.6766656151E-01
 from k-point      3 to k-point      2
Estimated direct band gap   :   0.1182015697    
 at k-point      1
 
Charges :
 core                        :    14.00000000    
 valence                     :    22.00000000    
 interstitial                :    1.830311830    
 muffin-tins (core leakage)
  species :    1 (Ni)
   atom    1                 :    26.87001479     (  0.7127524536E-03)
  species :    2 (O)
   atom    1                 :    7.299673383     (  0.4599207819E-07)
 total in muffin-tins        :    34.16968817    
 total calculated charge     :    35.99838147    
 total charge                :    36.00000000    
 error                       :   0.1618529462E-02
 
Moments :
 interstitial                :  -0.2964632216E-26 -0.3298767521E-26  0.3334581203E-26
 muffin-tins
  species :    1 (Ni)
   atom    1                 :   0.1478009426E-26  0.4557746127E-26 -0.4847402224E-26
  species :    2 (O)
   atom    1                 :  -0.1941877323E-26 -0.1900883725E-26  0.5080997201E-27
 total in muffin-tins        :  -0.4638678970E-27  0.2656862402E-26 -0.4339302504E-26
 total moment                :  -0.3428500113E-26 -0.6419051195E-27 -0.1004721301E-26
 
RMS change in Kohn-Sham potential (target) :   0.3332034626E-03 (  0.1000000000E-06)
Absolute change in total energy (target)   :   0.1056978449E-01 (  0.1000000000E-05)
 
Time (CPU seconds) :        51.13
 
+--------------------+
| Loop number :   16 |
+--------------------+
 
Energies :
 Fermi                       :     0.255510605599    
 sum of eigenvalues          :     -910.269627902    
 electron kinetic            :      1619.40376624    
 core electron kinetic       :      1444.78861319    
 Coulomb                     :     -3144.04573904    
 Coulomb potential           :     -2436.01001797    
 nuclear-nuclear             :     -224.268728362    
 electron-nuclear            :     -3403.54400338    
 Hartree                     :      483.766992701    
 Madelung                    :     -1926.04073005    
 xc potential                :     -93.6633761669    
 xc effective B-field        :    -0.133905082718E-19
 external B-field            :      0.00000000000    
 exchange                    :     -70.5729175997    
 correlation                 :     -1.60922656008    
 DFT+U                       :     0.909949976387    
 electron entropic           :    -0.121648592826E-16
 total energy                :     -1595.91416698    
 (external B-field energy excluded from total)
 
Density of states at Fermi energy :   0.3554478830E-10
 (states/Hartree/unit cell)
 
Estimated indirect band gap :   0.6770845840E-01
 from k-point      3 to k-point      2
Estimated direct band gap   :   0.1183110030    
 at k-point      1
 
Charges :
 core                        :    14.00000000    
 valence                     :    22.00000000    
 interstitial                :    1.830356011    
 muffin-tins (core leakage)
  species :    1 (Ni)
   atom    1                 :    26.87058026     (  0.7127577561E-03)
  species :    2 (O)
   atom    1                 :    7.299063731     (  0.4602670990E-07)
 total in muffin-tins        :    34.16964399    
 total calculated charge     :    35.99838158    
 total charge                :    36.00000000    
 error                       :   0.1618424427E-02
 
Moments :
 interstitial                :   0.7575356556E-26 -0.1497694218E-25  0.6433913321E-26
 muffin-tins
  species :    1 (Ni)
   atom    1                 :   0.1014102676E-26  0.1441393232E-26  0.8186078902E-27
  species :    2 (O)
   atom    1                 :   0.2853188335E-28 -0.2884086084E-28 -0.2733201125E-26
 total in muffin-tins        :   0.1042634560E-26  0.1412552371E-26 -0.1914593235E-26
 total moment                :   0.8617991116E-26 -0.1356438981E-25  0.4519320086E-26
 
RMS change in Kohn-Sham potential (target) :   0.2606705459E-03 (  0.1000000000E-06)
Absolute change in total energy (target)   :   0.7372234910E-02 (  0.1000000000E-05)
 
Time (CPU seconds) :        54.07
 
+--------------------+
| Loop number :   17 |
+--------------------+
 
Energies :
 Fermi                       :     0.255542855556    
 sum of eigenvalues          :     -910.267335920    
 electron kinetic            :      1619.40819940    
 core electron kinetic       :      1444.78874215    
 Coulomb                     :     -3144.04115553    
 Coulomb potential           :     -2436.01262918    
 nuclear-nuclear             :     -224.268728362    
 electron-nuclear            :     -3403.53222516    
 Hartree                     :      483.759797992    
 Madelung                    :     -1926.03484094    
 xc potential                :     -93.6629061420    
 xc effective B-field        :    -0.671608491424E-18
 external B-field            :      0.00000000000    
 exchange                    :     -70.5725698876    
 correlation                 :     -1.60922177702    
 DFT+U                       :     0.909912400399    
 electron entropic           :    -0.121648592826E-16
 total energy                :     -1595.90483540    
 (external B-field energy excluded from total)
 
Density of states at Fermi energy :   0.3554487266E-10
 (states/Hartree/unit cell)
 
Estimated indirect band gap :   0.6769944860E-01
 from k-point      3 to k-point      2
Estimated direct band gap   :   0.1182871162    
 at k-point      1
 
Charges :
 core                        :    14.00000000    
 valence                     :    22.00000000    
 interstitial                :    1.830414927    
 muffin-tins (core leakage)
  species :    1 (Ni)
   atom    1                 :    26.87034287     (  0.7128135901E-03)
  species :    2 (O)
   atom    1                 :    7.299242205     (  0.4600671568E-07)
 total in muffin-tins        :    34.16958507    
 total calculated charge     :    35.99838151    
 total charge                :    36.00000000    
 error                       :   0.1618491586E-02
 
Moments :
 interstitial                :  -0.3140426132E-26 -0.5556280967E-26 -0.1702763119E-25
 muffin-tins
  species :    1 (Ni)
   atom    1                 :  -0.5068329845E-26 -0.2065581765E-26  0.5685460509E-27
  species :    2 (O)
   atom    1                 :   0.1685121340E-26  0.2867363162E-26  0.4977241976E-26
 total in muffin-tins        :  -0.3383208505E-26  0.8017813965E-27  0.5545788027E-26
 total moment                :  -0.6523634637E-26 -0.4754499571E-26 -0.1148184316E-25
 
RMS change in Kohn-Sham potential (target) :   0.1377441519E-03 (  0.1000000000E-06)
Absolute change in total energy (target)   :   0.7488527466E-02 (  0.1000000000E-05)
 
Time (CPU seconds) :        57.12
 
+--------------------+
| Loop number :   18 |
+--------------------+
 
Energies :
 Fermi                       :     0.255579889800    
 sum of eigenvalues          :     -910.265980588    
 electron kinetic            :      1619.41071912    
 core electron kinetic       :      1444.78910733    
 Coulomb                     :     -3144.03765514    
 Coulomb potential           :     -2436.01413857    
 nuclear-nuclear             :     -224.268728362    
 electron-nuclear            :     -3403.52371497    
 Hartree                     :      483.754788201    
 Madelung                    :     -1926.03058585    
 xc potential                :     -93.6625611382    
 xc effective B-field        :    -0.607580726318E-18
 external B-field            :      0.00000000000    
 exchange                    :     -70.5723106108    
 correlation                 :     -1.60921898386    
 DFT+U                       :     0.909888146438    
 electron entropic           :    -0.121648592826E-16
 total energy                :     -1595.89857746    
 (external B-field energy excluded from total)
 
Density of states at Fermi energy :   0.3554484298E-10
 (states/Hartree/unit cell)
 
Estimated indirect band gap :   0.6769216923E-01
 from k-point      3 to k-point      2
Estimated direct band gap   :   0.1182570293    
 at k-point      1
 
Charges :
 core                        :    14.00000000    
 valence                     :    22.00000000    
 interstitial                :    1.830461986    
 muffin-tins (core leakage)
  species :    1 (Ni)
   atom    1                 :    26.87019805     (  0.7128460629E-03)
  species :    2 (O)
   atom    1                 :    7.299339965     (  0.4603300394E-07)
 total in muffin-tins        :    34.16953801    
 total calculated charge     :    35.99838145    
 total charge                :    36.00000000    
 error                       :   0.1618548736E-02
 
Moments :
 interstitial                :   0.5147638117E-27  0.2343644579E-26 -0.1652401093E-26
 muffin-tins
  species :    1 (Ni)
   atom    1                 :   0.1582907105E-27 -0.1129214050E-26  0.6716729434E-27
  species :    2 (O)
   atom    1                 :   0.1282704191E-26  0.8317707349E-27  0.2351744601E-27
 total in muffin-tins        :   0.1440994902E-26 -0.2974433150E-27  0.9068474035E-27
 total moment                :   0.1955758713E-26  0.2046201264E-26 -0.7455536899E-27
 
RMS change in Kohn-Sham potential (target) :   0.9380606871E-04 (  0.1000000000E-06)
Absolute change in total energy (target)   :   0.8130066727E-02 (  0.1000000000E-05)
 
Time (CPU seconds) :        60.28
 
+--------------------+
| Loop number :   19 |
+--------------------+
 
Energies :
 Fermi                       :     0.255588195195    
 sum of eigenvalues          :     -910.265737202    
 electron kinetic            :      1619.41063213    
 core electron kinetic       :      1444.78912385    
 Coulomb                     :     -3144.03673870    
 Coulomb potential           :     -2436.01388977    
 nuclear-nuclear             :     -224.268728362    
 electron-nuclear            :     -3403.52213091    
 Hartree                     :      483.754120573    
 Madelung                    :     -1926.02979382    
 xc potential                :     -93.6624795656    
 xc effective B-field        :    -0.719344354911E-20
 external B-field            :      0.00000000000    
 exchange                    :     -70.5722468903    
 correlation                 :     -1.60921957844    
 DFT+U                       :     0.909891719761    
 electron entropic           :    -0.121648592826E-16
 total energy                :     -1595.89768132    
 (external B-field energy excluded from total)
 
Density of states at Fermi energy :   0.3554481249E-10
 (states/Hartree/unit cell)
 
Estimated indirect band gap :   0.6769417380E-01
 from k-point      3 to k-point      2
Estimated direct band gap   :   0.1182549071    
 at k-point      1
 
Charges :
 core                        :    14.00000000    
 valence                     :    22.00000000    
 interstitial                :    1.830479681    
 muffin-tins (core leakage)
  species :    1 (Ni)
   atom    1                 :    26.87022833     (  0.7128524614E-03)
  species :    2 (O)
   atom    1                 :    7.299291993     (  0.4603598588E-07)
 total in muffin-tins        :    34.16952032    
 total calculated charge     :    35.99838144    
 total charge                :    36.00000000    
 error                       :   0.1618559474E-02
 
Moments :
 interstitial                :  -0.3485156390E-26 -0.2898833791E-26 -0.2995114133E-26
 muffin-tins
  species :    1 (Ni)
   atom    1                 :  -0.3040450658E-26 -0.2494909139E-26  0.2117680134E-26
  species :    2 (O)
   atom    1                 :  -0.1139958662E-26  0.3202563669E-26  0.1630695952E-26
 total in muffin-tins        :  -0.4180409320E-26  0.7076545302E-27  0.3748376086E-26
 total moment                :  -0.7665565710E-26 -0.2191179260E-26  0.7532619526E-27
 
RMS change in Kohn-Sham potential (target) :   0.7129686766E-04 (  0.1000000000E-06)
Absolute change in total energy (target)   :   0.2928657244E-02 (  0.1000000000E-05)
 
Time (CPU seconds) :        63.35
 
+--------------------+
| Loop number :   20 |
+--------------------+
 
Energies :
 Fermi                       :     0.255585721402    
 sum of eigenvalues          :     -910.265703632    
 electron kinetic            :      1619.41017133    
 core electron kinetic       :      1444.78906658    
 Coulomb                     :     -3144.03632719    
 Coulomb potential           :     -2436.01342226    
 nuclear-nuclear             :     -224.268728362    
 electron-nuclear            :     -3403.52177539    
 Hartree                     :      483.754176567    
 Madelung                    :     -1926.02961606    
 xc potential                :     -93.6624527031    
 xc effective B-field        :    -0.187484751399E-18
 external B-field            :      0.00000000000    
 exchange                    :     -70.5722252442    
 correlation                 :     -1.60922046330    
 DFT+U                       :     0.909899401250    
 electron entropic           :    -0.121648592826E-16
 total energy                :     -1595.89770216    
 (external B-field energy excluded from total)
 
Density of states at Fermi energy :   0.3554485238E-10
 (states/Hartree/unit cell)
 
Estimated indirect band gap :   0.6769771211E-01
 from k-point      3 to k-point      2
Estimated direct band gap   :   0.1182617179    
 at k-point      1
 
Charges :
 core                        :    14.00000000    
 valence                     :    22.00000000    
 interstitial                :    1.830485315    
 muffin-tins (core leakage)
  species :    1 (Ni)
   atom    1                 :    26.87027966     (  0.7128554923E-03)
  species :    2 (O)
   atom    1                 :    7.299235029     (  0.4602866764E-07)
 total in muffin-tins        :    34.16951469    
 total calculated charge     :    35.99838146    
 total charge                :    36.00000000    
 error                       :   0.1618540716E-02
 
Moments :
 interstitial                :   0.2372652118E-26  0.3818297347E-27 -0.2772105818E-26
 muffin-tins
  species :    1 (Ni)
   atom    1                 :  -0.6273884111E-27  0.7323898925E-28  0.2700619428E-26
  species :    2 (O)
   atom    1                 :   0.5559943923E-27  0.9419048569E-27 -0.4356171284E-27
 total in muffin-tins        :  -0.7139401876E-28  0.1015143846E-26  0.2265002299E-26
 total moment                :   0.2301258099E-26  0.1396973581E-26 -0.5071035191E-27
 
RMS change in Kohn-Sham potential (target) :   0.4779947447E-04 (  0.1000000000E-06)
Absolute change in total energy (target)   :   0.7113207294E-03 (  0.1000000000E-05)
 
Time (CPU seconds) :        66.67
 
+--------------------+
| Loop number :   21 |
+--------------------+
 
Energies :
 Fermi                       :     0.255584634379    
 sum of eigenvalues          :     -910.265655008    
 electron kinetic            :      1619.41009657    
 core electron kinetic       :      1444.78911186    
 Coulomb                     :     -3144.03581355    
 Coulomb potential           :     -2436.01333815    
 nuclear-nuclear             :     -224.268728362    
 electron-nuclear            :     -3403.52083222    
 Hartree                     :      483.753747037    
 Madelung                    :     -1926.02914447    
 xc potential                :     -93.6624134346    
 xc effective B-field        :    -0.124120832675E-18
 external B-field            :      0.00000000000    
 exchange                    :     -70.5721954246    
 correlation                 :     -1.60922051540    
 DFT+U                       :     0.909901445584    
 electron entropic           :    -0.121648592826E-16
 total energy                :     -1595.89723147    
 (external B-field energy excluded from total)
 
Density of states at Fermi energy :   0.3554484110E-10
 (states/Hartree/unit cell)
 
Estimated indirect band gap :   0.6769900047E-01
 from k-point      3 to k-point      2
Estimated direct band gap   :   0.1182649604    
 at k-point      1
 
Charges :
 core                        :    14.00000000    
 valence                     :    22.00000000    
 interstitial                :    1.830486986    
 muffin-tins (core leakage)
  species :    1 (Ni)
   atom    1                 :    26.87029165     (  0.7128604785E-03)
  species :    2 (O)
   atom    1                 :    7.299221366     (  0.4602454304E-07)
 total in muffin-tins        :    34.16951301    
 total calculated charge     :    35.99838149    
 total charge                :    36.00000000    
 error                       :   0.1618514819E-02
 
Moments :
 interstitial                :   0.4581545362E-26 -0.1673248119E-26 -0.1198923423E-25
 muffin-tins
  species :    1 (Ni)
   atom    1                 :  -0.2467752211E-26 -0.9096682791E-27  0.3537968999E-26
  species :    2 (O)
   atom    1                 :  -0.2422394984E-26  0.7845134528E-26  0.6715210941E-26
 total in muffin-tins        :  -0.4890147195E-26  0.6935466249E-26  0.1025317994E-25
 total moment                :  -0.3086018329E-27  0.5262218130E-26 -0.1736054288E-26
 
RMS change in Kohn-Sham potential (target) :   0.2929435056E-04 (  0.1000000000E-06)
Absolute change in total energy (target)   :   0.6485271610E-03 (  0.1000000000E-05)
 
Time (CPU seconds) :        69.75
 
+--------------------+
| Loop number :   22 |
+--------------------+
 
Energies :
 Fermi                       :     0.255582304929    
 sum of eigenvalues          :     -910.265727337    
 electron kinetic            :      1619.40990528    
 core electron kinetic       :      1444.78912931    
 Coulomb                     :     -3144.03564960    
 Coulomb potential           :     -2436.01322497    
 nuclear-nuclear             :     -224.268728362    
 electron-nuclear            :     -3403.52061750    
 Hartree                     :      483.753696265    
 Madelung                    :     -1926.02903711    
 xc potential                :     -93.6624076427    
 xc effective B-field        :    -0.958786100388E-19
 external B-field            :      0.00000000000    
 exchange                    :     -70.5721909216    
 correlation                 :     -1.60922058331    
 DFT+U                       :     0.909903522478    
 electron entropic           :    -0.121648592826E-16
 total energy                :     -1595.89725230    
 (external B-field energy excluded from total)
 
Density of states at Fermi energy :   0.3554487146E-10
 (states/Hartree/unit cell)
 
Estimated indirect band gap :   0.6769983457E-01
 from k-point      3 to k-point      2
Estimated direct band gap   :   0.1182681833    
 at k-point      1
 
Charges :
 core                        :    14.00000000    
 valence                     :    22.00000000    
 interstitial                :    1.830483944    
 muffin-tins (core leakage)
  species :    1 (Ni)
   atom    1                 :    26.87030281     (  0.7128612410E-03)
  species :    2 (O)
   atom    1                 :    7.299213245     (  0.4601876866E-07)
 total in muffin-tins        :    34.16951606    
 total calculated charge     :    35.99838151    
 total charge                :    36.00000000    
 error                       :   0.1618489041E-02
 
Moments :
 interstitial                :  -0.6193829646E-26 -0.8997137427E-27 -0.7499443209E-27
 muffin-tins
  species :    1 (Ni)
   atom    1                 :   0.7155304936E-27  0.2949285191E-26  0.4110577362E-26
  species :    2 (O)
   atom    1                 :  -0.1279068096E-26  0.2555943053E-26 -0.8252663455E-26
 total in muffin-tins        :  -0.5635376027E-27  0.5505228244E-26 -0.4142086093E-26
 total moment                :  -0.6757367249E-26  0.4605514502E-26 -0.4892030413E-26
 
RMS change in Kohn-Sham potential (target) :   0.1811244981E-04 (  0.1000000000E-06)
Absolute change in total energy (target)   :   0.1412949757E-03 (  0.1000000000E-05)
 
Time (CPU seconds) :        73.04
 
+--------------------+
| Loop number :   23 |
+--------------------+
 
Energies :
 Fermi                       :     0.255580666390    
 sum of eigenvalues          :     -910.265814643    
 electron kinetic            :      1619.40979500    
 core electron kinetic       :      1444.78916170    
 Coulomb                     :     -3144.03557193    
 Coulomb potential           :     -2436.01320328    
 nuclear-nuclear             :     -224.268728362    
 electron-nuclear            :     -3403.52048386    
 Hartree                     :      483.753640295    
 Madelung                    :     -1926.02897029    
 xc potential                :     -93.6624063688    
 xc effective B-field        :    -0.110999242926E-19
 external B-field            :      0.00000000000    
 exchange                    :     -70.5721900761    
 correlation                 :     -1.60922050820    
 DFT+U                       :     0.909904242947    
 electron entropic           :    -0.121648592826E-16
 total energy                :     -1595.89728327    
 (external B-field energy excluded from total)
 
Density of states at Fermi energy :   0.3554488449E-10
 (states/Hartree/unit cell)
 
Estimated indirect band gap :   0.6770003920E-01
 from k-point      3 to k-point      2
Estimated direct band gap   :   0.1182700885    
 at k-point      1
 
Charges :
 core                        :    14.00000000    
 valence                     :    22.00000000    
 interstitial                :    1.830480698    
 muffin-tins (core leakage)
  species :    1 (Ni)
   atom    1                 :    26.87030523     (  0.7128617750E-03)
  species :    2 (O)
   atom    1                 :    7.299214071     (  0.4602292666E-07)
 total in muffin-tins        :    34.16951930    
 total calculated charge     :    35.99838153    
 total charge                :    36.00000000    
 error                       :   0.1618470214E-02
 
Moments :
 interstitial                :  -0.7483790796E-26  0.7516998599E-26  0.2005826755E-25
 muffin-tins
  species :    1 (Ni)
   atom    1                 :  -0.1395235444E-26  0.7896518275E-26  0.3986784423E-27
  species :    2 (O)
   atom    1                 :  -0.7695809568E-27 -0.4119587150E-26  0.7159837908E-26
 total in muffin-tins        :  -0.2164816401E-26  0.3776931125E-26  0.7558516350E-26
 total moment                :  -0.9648607196E-26  0.1129392972E-25  0.2761678390E-25
 
RMS change in Kohn-Sham potential (target) :   0.1339764585E-04 (  0.1000000000E-06)
Absolute change in total energy (target)   :   0.4355024657E-05 (  0.1000000000E-05)
 
Time (CPU seconds) :        76.18
 
+--------------------+
| Loop number :   24 |
+--------------------+
 
Energies :
 Fermi                       :     0.255579220128    
 sum of eigenvalues          :     -910.265915480    
 electron kinetic            :      1619.40967815    
 core electron kinetic       :      1444.78917517    
 Coulomb                     :     -3144.03560160    
 Coulomb potential           :     -2436.01318095    
 nuclear-nuclear             :     -224.268728362    
 electron-nuclear            :     -3403.52056551    
 Hartree                     :      483.753692280    
 Madelung                    :     -1926.02901112    
 xc potential                :     -93.6624126711    
 xc effective B-field        :    -0.118997778192E-20
 external B-field            :      0.00000000000    
 exchange                    :     -70.5721949020    
 correlation                 :     -1.60922048980    
 DFT+U                       :     0.909904914912    
 electron entropic           :    -0.121648592826E-16
 total energy                :     -1595.89743393    
 (external B-field energy excluded from total)
 
Density of states at Fermi energy :   0.3554422680E-10
 (states/Hartree/unit cell)
 
Estimated indirect band gap :   0.6770017139E-01
 from k-point      3 to k-point      2
Estimated direct band gap   :   0.1182715720    
 at k-point      1
 
Charges :
 core                        :    14.00000000    
 valence                     :    22.00000000    
 interstitial                :    1.830477952    
 muffin-tins (core leakage)
  species :    1 (Ni)
   atom    1                 :    26.87030797     (  0.7128612427E-03)
  species :    2 (O)
   atom    1                 :    7.299214077     (  0.4603324797E-07)
 total in muffin-tins        :    34.16952205    
 total calculated charge     :    35.99838154    
 total charge                :    36.00000000    
 error                       :   0.1618456193E-02
 
Moments :
 interstitial                :  -0.1798261698E-25 -0.6340238856E-26  0.4829643827E-26
 muffin-tins
  species :    1 (Ni)
   atom    1                 :   0.2317445646E-26 -0.7866545676E-27  0.2066696727E-26
  species :    2 (O)
   atom    1                 :  -0.3711586681E-26 -0.2590109434E-26 -0.3282893767E-26
 total in muffin-tins        :  -0.1394141036E-26 -0.3376764002E-26 -0.1216197040E-26
 total moment                :  -0.1937675801E-25 -0.9717002858E-26  0.3613446787E-26
 
RMS change in Kohn-Sham potential (target) :   0.1105842591E-04 (  0.1000000000E-06)
Absolute change in total energy (target)   :   0.1495667298E-03 (  0.1000000000E-05)
 
Time (CPU seconds) :        79.18
 
+--------------------+
| Loop number :   25 |
+--------------------+
 
Energies :
 Fermi                       :     0.255578773296    
 sum of eigenvalues          :     -910.265981643    
 electron kinetic            :      1619.40963800    
 core electron kinetic       :      1444.78919748    
 Coulomb                     :     -3144.03560702    
 Coulomb potential           :     -2436.01320579    
 nuclear-nuclear             :     -224.268728362    
 electron-nuclear            :     -3403.52055153    
 Hartree                     :      483.753672866    
 Madelung                    :     -1926.02900412    
 xc potential                :     -93.6624138537    
 xc effective B-field        :    -0.731011786302E-20
 external B-field            :      0.00000000000    
 exchange                    :     -70.5721959024    
 correlation                 :     -1.60922042781    
 DFT+U                       :     0.909904840034    
 electron entropic           :    -0.121648592826E-16
 total energy                :     -1595.89748051    
 (external B-field energy excluded from total)
 
Density of states at Fermi energy :   0.3554353580E-10
 (states/Hartree/unit cell)
 
Estimated indirect band gap :   0.6770008110E-01
 from k-point      3 to k-point      2
Estimated direct band gap   :   0.1182720300    
 at k-point      1
 
Charges :
 core                        :    14.00000000    
 valence                     :    22.00000000    
 interstitial                :    1.830476983    
 muffin-tins (core leakage)
  species :    1 (Ni)
   atom    1                 :    26.87030666     (  0.7128613902E-03)
  species :    2 (O)
   atom    1                 :    7.299216354     (  0.4600728600E-07)
 total in muffin-tins        :    34.16952302    
 total calculated charge     :    35.99838155    
 total charge                :    36.00000000    
 error                       :   0.1618448289E-02
 
Moments :
 interstitial                :  -0.2523038721E-26 -0.8227443292E-26 -0.1200075495E-26
 muffin-tins
  species :    1 (Ni)
   atom    1                 :   0.1416765438E-26 -0.7515456731E-26  0.2779036453E-26
  species :    2 (O)
   atom    1                 :  -0.2429260621E-26  0.1269398109E-25 -0.1115940615E-25
 total in muffin-tins        :  -0.1012495183E-26  0.5178524360E-26 -0.8380369692E-26
 total moment                :  -0.3535533904E-26 -0.3048918933E-26 -0.9580445188E-26
 
RMS change in Kohn-Sham potential (target) :   0.9123706736E-05 (  0.1000000000E-06)
Absolute change in total energy (target)   :   0.8397120450E-04 (  0.1000000000E-05)
 
Time (CPU seconds) :        82.49
 
+--------------------+
| Loop number :   26 |
+--------------------+
 
Energies :
 Fermi                       :     0.255578152570    
 sum of eigenvalues          :     -910.266044649    
 electron kinetic            :      1619.40956228    
 core electron kinetic       :      1444.78918742    
 Coulomb                     :     -3144.03566674    
 Coulomb potential           :     -2436.01318721    
 nuclear-nuclear             :     -224.268728362    
 electron-nuclear            :     -3403.52068954    
 Hartree                     :      483.753751162    
 Madelung                    :     -1926.02907313    
 xc potential                :     -93.6624197141    
 xc effective B-field        :    -0.269625674442E-19
 external B-field            :      0.00000000000    
 exchange                    :     -70.5722002947    
 correlation                 :     -1.60922047658    
 DFT+U                       :     0.909905299228    
 electron entropic           :    -0.121648592826E-16
 total energy                :     -1595.89761993    
 (external B-field energy excluded from total)
 
Density of states at Fermi energy :   0.3554437304E-10
 (states/Hartree/unit cell)
 
Estimated indirect band gap :   0.6770021437E-01
 from k-point      3 to k-point      2
Estimated direct band gap   :   0.1182727145    
 at k-point      1
 
Charges :
 core                        :    14.00000000    
 valence                     :    22.00000000    
 interstitial                :    1.830476437    
 muffin-tins (core leakage)
  species :    1 (Ni)
   atom    1                 :    26.87030932     (  0.7128607762E-03)
  species :    2 (O)
   atom    1                 :    7.299214242     (  0.4602748507E-07)
 total in muffin-tins        :    34.16952356    
 total calculated charge     :    35.99838156    
 total charge                :    36.00000000    
 error                       :   0.1618442643E-02
 
Moments :
 interstitial                :  -0.5769345799E-26 -0.1014701548E-25  0.6621673704E-26
 muffin-tins
  species :    1 (Ni)
   atom    1                 :  -0.8923006943E-27  0.9528355994E-27 -0.3515258898E-26
  species :    2 (O)
   atom    1                 :   0.2984058933E-26 -0.6383954093E-26 -0.2056799757E-26
 total in muffin-tins        :   0.2091758239E-26 -0.5431118493E-26 -0.5572058654E-26
 total moment                :  -0.3677587561E-26 -0.1557813397E-25  0.1049615050E-26
 
RMS change in Kohn-Sham potential (target) :   0.6300946149E-05 (  0.1000000000E-06)
Absolute change in total energy (target)   :   0.1604161869E-03 (  0.1000000000E-05)
 
Time (CPU seconds) :        85.63
 
+--------------------+
| Loop number :   27 |
+--------------------+
 
Energies :
 Fermi                       :     0.255578628168    
 sum of eigenvalues          :     -910.266055725    
 electron kinetic            :      1619.40959923    
 core electron kinetic       :      1444.78921497    
 Coulomb                     :     -3144.03563118    
 Coulomb potential           :     -2436.01323964    
 nuclear-nuclear             :     -224.268728362    
 electron-nuclear            :     -3403.52056599    
 Hartree                     :      483.753663172    
 Madelung                    :     -1926.02901135    
 xc potential                :     -93.6624153156    
 xc effective B-field        :    -0.610948001856E-19
 external B-field            :      0.00000000000    
 exchange                    :     -70.5721970891    
 correlation                 :     -1.60922038178    
 DFT+U                       :     0.909904621169    
 electron entropic           :    -0.121648592826E-16
 total energy                :     -1595.89754479    
 (external B-field energy excluded from total)
 
Density of states at Fermi energy :   0.3554486747E-10
 (states/Hartree/unit cell)
 
Estimated indirect band gap :   0.6769995644E-01
 from k-point      3 to k-point      2
Estimated direct band gap   :   0.1182722699    
 at k-point      1
 
Charges :
 core                        :    14.00000000    
 valence                     :    22.00000000    
 interstitial                :    1.830476987    
 muffin-tins (core leakage)
  species :    1 (Ni)
   atom    1                 :    26.87030482     (  0.7128614296E-03)
  species :    2 (O)
   atom    1                 :    7.299218189     (  0.4601527890E-07)
 total in muffin-tins        :    34.16952301    
 total calculated charge     :    35.99838156    
 total charge                :    36.00000000    
 error                       :   0.1618441758E-02
 
Moments :
 interstitial                :   0.3408951596E-26  0.8053535209E-26  0.2255538465E-25
 muffin-tins
  species :    1 (Ni)
   atom    1                 :  -0.1875563924E-26  0.5140228312E-26 -0.1006973309E-27
  species :    2 (O)
   atom    1                 :   0.2928628735E-26 -0.3205675060E-26 -0.9735830854E-28
 total in muffin-tins        :   0.1053064811E-26  0.1934553253E-26 -0.1980556395E-27
 total moment                :   0.4462016407E-26  0.9988088462E-26  0.2235732901E-25
 
RMS change in Kohn-Sham potential (target) :   0.4228163342E-05 (  0.1000000000E-06)
Absolute change in total energy (target)   :   0.3503414155E-04 (  0.1000000000E-05)
 
Time (CPU seconds) :        88.67
 
+--------------------+
| Loop number :   28 |
+--------------------+
 
Energies :
 Fermi                       :     0.255578001459    
 sum of eigenvalues          :     -910.266103277    
 electron kinetic            :      1619.40950736    
 core electron kinetic       :      1444.78918614    
 Coulomb                     :     -3144.03571533    
 Coulomb potential           :     -2436.01318734    
 nuclear-nuclear             :     -224.268728362    
 electron-nuclear            :     -3403.52078659    
 Hartree                     :      483.753799621    
 Madelung                    :     -1926.02912166    
 xc potential                :     -93.6624232975    
 xc effective B-field        :    -0.108411100759E-19
 external B-field            :      0.00000000000    
 exchange                    :     -70.5722029643    
 correlation                 :     -1.60922051649    
 DFT+U                       :     0.909905474658    
 electron entropic           :    -0.121648592826E-16
 total energy                :     -1595.89772597    
 (external B-field energy excluded from total)
 
Density of states at Fermi energy :   0.3554418466E-10
 (states/Hartree/unit cell)
 
Estimated indirect band gap :   0.6770025714E-01
 from k-point      3 to k-point      2
Estimated direct band gap   :   0.1182730459    
 at k-point      1
 
Charges :
 core                        :    14.00000000    
 valence                     :    22.00000000    
 interstitial                :    1.830476824    
 muffin-tins (core leakage)
  species :    1 (Ni)
   atom    1                 :    26.87031051     (  0.7128604415E-03)
  species :    2 (O)
   atom    1                 :    7.299212669     (  0.4602563812E-07)
 total in muffin-tins        :    34.16952318    
 total calculated charge     :    35.99838156    
 total charge                :    36.00000000    
 error                       :   0.1618438758E-02
 
Moments :
 interstitial                :  -0.4176056996E-26  0.1260477009E-25  0.4805650889E-26
 muffin-tins
  species :    1 (Ni)
   atom    1                 :   0.1090481540E-26 -0.3490279644E-26 -0.6620754360E-28
  species :    2 (O)
   atom    1                 :   0.1809111417E-26  0.4745617295E-27  0.7373592647E-27
 total in muffin-tins        :   0.2899592957E-26 -0.3015717915E-26  0.6711517211E-27
 total moment                :  -0.1276464039E-26  0.9589052178E-26  0.5476802610E-26
 
RMS change in Kohn-Sham potential (target) :   0.2201567260E-05 (  0.1000000000E-06)
Absolute change in total energy (target)   :   0.1724177012E-03 (  0.1000000000E-05)
 
Time (CPU seconds) :        91.94
 
+--------------------+
| Loop number :   29 |
+--------------------+
 
Energies :
 Fermi                       :     0.255578281390    
 sum of eigenvalues          :     -910.266088244    
 electron kinetic            :      1619.40955179    
 core electron kinetic       :      1444.78919156    
 Coulomb                     :     -3144.03567496    
 Coulomb potential           :     -2436.01322065    
 nuclear-nuclear             :     -224.268728362    
 electron-nuclear            :     -3403.52067255    
 Hartree                     :      483.753725952    
 Madelung                    :     -1926.02906464    
 xc potential                :     -93.6624193870    
 xc effective B-field        :    -0.104003763737E-19
 external B-field            :      0.00000000000    
 exchange                    :     -70.5722001262    
 correlation                 :     -1.60922043508    
 DFT+U                       :     0.909904912011    
 electron entropic           :    -0.121648592826E-16
 total energy                :     -1595.89763882    
 (external B-field energy excluded from total)
 
Density of states at Fermi energy :   0.3554487494E-10
 (states/Hartree/unit cell)
 
Estimated indirect band gap :   0.6770004017E-01
 from k-point      3 to k-point      2
Estimated direct band gap   :   0.1182727182    
 at k-point      1
 
Charges :
 core                        :    14.00000000    
 valence                     :    22.00000000    
 interstitial                :    1.830477061    
 muffin-tins (core leakage)
  species :    1 (Ni)
   atom    1                 :    26.87030670     (  0.7128610016E-03)
  species :    2 (O)
   atom    1                 :    7.299216239     (  0.4599071304E-07)
 total in muffin-tins        :    34.16952294    
 total calculated charge     :    35.99838156    
 total charge                :    36.00000000    
 error                       :   0.1618440064E-02
 
Moments :
 interstitial                :   0.6171816833E-27  0.7531262354E-26  0.7709559284E-26
 muffin-tins
  species :    1 (Ni)
   atom    1                 :  -0.3396850856E-26 -0.1776431085E-26  0.1133856579E-27
  species :    2 (O)
   atom    1                 :   0.5338933847E-27  0.4889513252E-28  0.3088326285E-27
 total in muffin-tins        :  -0.2862957471E-26 -0.1727535953E-26  0.4222182864E-27
 total moment                :  -0.2245775788E-26  0.5803726401E-26  0.8131777571E-26
 
[...]
 interstitial                :    1.830477213    
 muffin-tins (core leakage)
  species :    1 (Ni)
   atom    1                 :    26.87030699     (  0.7128607584E-03)
  species :    2 (O)
   atom    1                 :    7.299215798     (  0.4599106837E-07)
 total in muffin-tins        :    34.16952279    
 total calculated charge     :    35.99838156    
 total charge                :    36.00000000    
 error                       :   0.1618439518E-02
 
Moments :
 interstitial                :   0.3183285971E-27 -0.2984964923E-26  0.2492728243E-26
 muffin-tins
  species :    1 (Ni)
   atom    1                 :  -0.2271453459E-26  0.1255965253E-25 -0.3949086527E-26
  species :    2 (O)
   atom    1                 :   0.1179116813E-26 -0.1809040864E-25  0.5393577372E-26
 total in muffin-tins        :  -0.1092336646E-26 -0.5530756114E-26  0.1444490845E-26
 total moment                :  -0.7740080489E-27 -0.8515721038E-26  0.3937219088E-26
 
RMS change in Kohn-Sham potential (target) :   0.2031096601E-06 (  0.1000000000E-06)
Absolute change in total energy (target)   :   0.9464699360E-05 (  0.1000000000E-05)
 
Time (CPU seconds) :       101.38
 
+--------------------+
| Loop number :   32 |
+--------------------+
 
Energies :
 Fermi                       :     0.255578379021    
 sum of eigenvalues          :     -910.266096188    
 electron kinetic            :      1619.40954196    
 core electron kinetic       :      1444.78919374    
 Coulomb                     :     -3144.03567988    
 Coulomb potential           :     -2436.01321845    
 nuclear-nuclear             :     -224.268728362    
 electron-nuclear            :     -3403.52068459    
 Hartree                     :      483.753733071    
 Madelung                    :     -1926.02907066    
 xc potential                :     -93.6624196935    
 xc effective B-field        :    -0.519056155167E-19
 external B-field            :      0.00000000000    
 exchange                    :     -70.5722003255    
 correlation                 :     -1.60922044736    
 DFT+U                       :     0.909904948439    
 electron entropic           :    -0.121648592826E-16
 total energy                :     -1595.89765375    
 (external B-field energy excluded from total)
 
Density of states at Fermi energy :   0.3554423043E-10
 (states/Hartree/unit cell)
 
Estimated indirect band gap :   0.6770005335E-01
 from k-point      3 to k-point      2
Estimated direct band gap   :   0.1182726667    
 at k-point      1
 
Charges :
 core                        :    14.00000000    
 valence                     :    22.00000000    
 interstitial                :    1.830477237    
 muffin-tins (core leakage)
  species :    1 (Ni)
   atom    1                 :    26.87030704     (  0.7128608899E-03)
  species :    2 (O)
   atom    1                 :    7.299215721     (  0.4602933951E-07)
 total in muffin-tins        :    34.16952276    
 total calculated charge     :    35.99838156    
 total charge                :    36.00000000    
 error                       :   0.1618439470E-02
 
Moments :
 interstitial                :   0.3827897951E-27  0.6374801031E-27  0.1077626649E-25
 muffin-tins
  species :    1 (Ni)
   atom    1                 :   0.3321309191E-27  0.9392941781E-27 -0.3404314292E-26
  species :    2 (O)
   atom    1                 :   0.5260698562E-27  0.2207391392E-26  0.2722091621E-26
 total in muffin-tins        :   0.8582007753E-27  0.3146685570E-26 -0.6822226706E-27
 total moment                :   0.1240990570E-26  0.3784165673E-26  0.1009404382E-25
 
RMS change in Kohn-Sham potential (target) :   0.1515809118E-06 (  0.1000000000E-06)
Absolute change in total energy (target)   :   0.4773620503E-05 (  0.1000000000E-05)
 
Time (CPU seconds) :       104.46
 
+--------------------+
| Loop number :   33 |
+--------------------+
 
Energies :
 Fermi                       :     0.255578394296    
 sum of eigenvalues          :     -910.266097897    
 electron kinetic            :      1619.40954080    
 core electron kinetic       :      1444.78919411    
 Coulomb                     :     -3144.03567948    
 Coulomb potential           :     -2436.01321906    
 nuclear-nuclear             :     -224.268728362    
 electron-nuclear            :     -3403.52068318    
 Hartree                     :      483.753732060    
 Madelung                    :     -1926.02906995    
 xc potential                :     -93.6624196390    
 xc effective B-field        :    -0.431573513120E-20
 external B-field            :      0.00000000000    
 exchange                    :     -70.5722002850    
 correlation                 :     -1.60922044668    
 DFT+U                       :     0.909904942309    
 electron entropic           :    -0.121648592826E-16
 total energy                :     -1595.89765447    
 (external B-field energy excluded from total)
 
Density of states at Fermi energy :   0.3554358066E-10
 (states/Hartree/unit cell)
 
Estimated indirect band gap :   0.6770004697E-01
 from k-point      3 to k-point      2
Estimated direct band gap   :   0.1182726614    
 at k-point      1
 
Charges :
 core                        :    14.00000000    
 valence                     :    22.00000000    
 interstitial                :    1.830477260    
 muffin-tins (core leakage)
  species :    1 (Ni)
   atom    1                 :    26.87030701     (  0.7128608202E-03)
  species :    2 (O)
   atom    1                 :    7.299215734     (  0.4600380665E-07)
 total in muffin-tins        :    34.16952274    
 total calculated charge     :    35.99838156    
 total charge                :    36.00000000    
 error                       :   0.1618439168E-02
 
Moments :
 interstitial                :  -0.1177915244E-25  0.9611576081E-27  0.9668631099E-26
 muffin-tins
  species :    1 (Ni)
   atom    1                 :  -0.4018037050E-26  0.5449293620E-26 -0.1300533716E-26
  species :    2 (O)
   atom    1                 :  -0.8779577378E-27  0.2145089456E-27 -0.7390408056E-27
 total in muffin-tins        :  -0.4895994788E-26  0.5663802565E-26 -0.2039574521E-26
 total moment                :  -0.1667514723E-25  0.6624960173E-26  0.7629056577E-26
 
RMS change in Kohn-Sham potential (target) :   0.1170650512E-06 (  0.1000000000E-06)
Absolute change in total energy (target)   :   0.1911120080E-05 (  0.1000000000E-05)
 
Time (CPU seconds) :       107.50
 
+--------------------+
| Loop number :   34 |
+--------------------+
 
Energies :
 Fermi                       :     0.255578397661    
 sum of eigenvalues          :     -910.266099556    
 electron kinetic            :      1619.40953896    
 core electron kinetic       :      1444.78919399    
 Coulomb                     :     -3144.03567957    
 Coulomb potential           :     -2436.01321886    
 nuclear-nuclear             :     -224.268728362    
 electron-nuclear            :     -3403.52068355    
 Hartree                     :      483.753732344    
 Madelung                    :     -1926.02907014    
 xc potential                :     -93.6624196506    
 xc effective B-field        :    -0.899948484593E-20
 external B-field            :      0.00000000000    
 exchange                    :     -70.5722002927    
 correlation                 :     -1.60922044742    
 DFT+U                       :     0.909904945388    
 electron entropic           :    -0.121648592826E-16
 total energy                :     -1595.89765641    
 (external B-field energy excluded from total)
 
Density of states at Fermi energy :   0.3554356405E-10
 (states/Hartree/unit cell)
 
Estimated indirect band gap :   0.6770004038E-01
 from k-point      3 to k-point      2
Estimated direct band gap   :   0.1182726749    
 at k-point      1
 
Charges :
 core                        :    14.00000000    
 valence                     :    22.00000000    
 interstitial                :    1.830477278    
 muffin-tins (core leakage)
  species :    1 (Ni)
   atom    1                 :    26.87030703     (  0.7128608071E-03)
  species :    2 (O)
   atom    1                 :    7.299215693     (  0.4600127154E-07)
 total in muffin-tins        :    34.16952272    
 total calculated charge     :    35.99838156    
 total charge                :    36.00000000    
 error                       :   0.1618438990E-02
 
Moments :
 interstitial                :   0.4419723754E-26  0.5518975763E-26  0.3156678583E-26
 muffin-tins
  species :    1 (Ni)
   atom    1                 :  -0.1794587917E-26  0.1712503122E-26 -0.4352457602E-26
  species :    2 (O)
   atom    1                 :  -0.4623031028E-27 -0.1017400773E-26 -0.5366607007E-27
 total in muffin-tins        :  -0.2256891019E-26  0.6951023488E-27 -0.4889118303E-26
 total moment                :   0.2162832734E-26  0.6214078112E-26 -0.1732439720E-26
 
RMS change in Kohn-Sham potential (target) :   0.9779823095E-07 (  0.1000000000E-06)
Absolute change in total energy (target)   :   0.2413986067E-05 (  0.1000000000E-05)
 
Time (CPU seconds) :       110.58
 
+--------------------+
| Loop number :   35 |
+--------------------+
 
Energies :
 Fermi                       :     0.255578403484    
 sum of eigenvalues          :     -910.266100672    
 electron kinetic            :      1619.40953797    
 core electron kinetic       :      1444.78919395    
 Coulomb                     :     -3144.03567925    
 Coulomb potential           :     -2436.01321902    
 nuclear-nuclear             :     -224.268728362    
 electron-nuclear            :     -3403.52068274    
 Hartree                     :      483.753731859    
 Madelung                    :     -1926.02906973    
 xc potential                :     -93.6624196174    
 xc effective B-field        :    -0.293198550925E-20
 external B-field            :      0.00000000000    
 exchange                    :     -70.5722002679    
 correlation                 :     -1.60922044731    
 DFT+U                       :     0.909904942624    
 electron entropic           :    -0.121648592826E-16
 total energy                :     -1595.89765705    
 (external B-field energy excluded from total)
 
Density of states at Fermi energy :   0.3554354585E-10
 (states/Hartree/unit cell)
 
Estimated indirect band gap :   0.6770004169E-01
 from k-point      3 to k-point      2
Estimated direct band gap   :   0.1182726816    
 at k-point      1
 
Charges :
 core                        :    14.00000000    
 valence                     :    22.00000000    
 interstitial                :    1.830477295    
 muffin-tins (core leakage)
  species :    1 (Ni)
   atom    1                 :    26.87030701     (  0.7128608792E-03)
  species :    2 (O)
   atom    1                 :    7.299215692     (  0.4599590222E-07)
 total in muffin-tins        :    34.16952271    
 total calculated charge     :    35.99838156    
 total charge                :    36.00000000    
 error                       :   0.1618438941E-02
 
Moments :
 interstitial                :   0.1106495323E-25 -0.7438547950E-26 -0.1690858370E-25
 muffin-tins
  species :    1 (Ni)
   atom    1                 :  -0.5717006367E-27 -0.1603391840E-25  0.2627685181E-26
  species :    2 (O)
   atom    1                 :  -0.3781370619E-26  0.3344966538E-27  0.5535253389E-26
 total in muffin-tins        :  -0.4353071255E-26 -0.1569942174E-25  0.8162938571E-26
 total moment                :   0.6711881970E-26 -0.2313796969E-25 -0.8745645127E-26
 
RMS change in Kohn-Sham potential (target) :   0.7254251929E-07 (  0.1000000000E-06)
Absolute change in total energy (target)   :   0.1246065722E-05 (  0.1000000000E-05)
 
Time (CPU seconds) :       113.74
 
+--------------------+
| Loop number :   36 |
+--------------------+
 
Energies :
 Fermi                       :     0.255578402116    
 sum of eigenvalues          :     -910.266101657    
 electron kinetic            :      1619.40953679    
 core electron kinetic       :      1444.78919365    
 Coulomb                     :     -3144.03567932    
 Coulomb potential           :     -2436.01321881    
 nuclear-nuclear             :     -224.268728362    
 electron-nuclear            :     -3403.52068311    
 Hartree                     :      483.753732153    
 Madelung                    :     -1926.02906992    
 xc potential                :     -93.6624196355    
 xc effective B-field        :    -0.381941303124E-20
 external B-field            :      0.00000000000    
 exchange                    :     -70.5722002817    
 correlation                 :     -1.60922044773    
 DFT+U                       :     0.909904944224    
 electron entropic           :    -0.121648592826E-16
 total energy                :     -1595.89765832    
 (external B-field energy excluded from total)
 
Density of states at Fermi energy :   0.3554357253E-10
 (states/Hartree/unit cell)
 
Estimated indirect band gap :   0.6770004793E-01
 from k-point      3 to k-point      2
Estimated direct band gap   :   0.1182726838    
 at k-point      1
 
Charges :
 core                        :    14.00000000    
 valence                     :    22.00000000    
 interstitial                :    1.830477301    
 muffin-tins (core leakage)
  species :    1 (Ni)
   atom    1                 :    26.87030703     (  0.7128608415E-03)
  species :    2 (O)
   atom    1                 :    7.299215673     (  0.4600439954E-07)
 total in muffin-tins        :    34.16952270    
 total calculated charge     :    35.99838156    
 total charge                :    36.00000000    
 error                       :   0.1618438834E-02
 
Moments :
 interstitial                :   0.2212699198E-25 -0.9538062885E-26  0.1639874020E-25
 muffin-tins
  species :    1 (Ni)
   atom    1                 :  -0.1208466415E-26 -0.3676098911E-27 -0.2122681629E-26
  species :    2 (O)
   atom    1                 :   0.6465400149E-27  0.2245847258E-26  0.1018734840E-27
 total in muffin-tins        :  -0.5619263998E-27  0.1878237367E-26 -0.2020808145E-26
 total moment                :   0.2156506558E-25 -0.7659825518E-26  0.1437793205E-25
 
RMS change in Kohn-Sham potential (target) :   0.5608776051E-07 (  0.1000000000E-06)
Absolute change in total energy (target)   :   0.1584648999E-05 (  0.1000000000E-05)
 
Time (CPU seconds) :       116.86
 
+--------------------+
| Loop number :   37 |
+--------------------+
 
Energies :
 Fermi                       :     0.255578405984    
 sum of eigenvalues          :     -910.266102038    
 electron kinetic            :      1619.40953631    
 core electron kinetic       :      1444.78919351    
 Coulomb                     :     -3144.03567906    
 Coulomb potential           :     -2436.01321872    
 nuclear-nuclear             :     -224.268728362    
 electron-nuclear            :     -3403.52068268    
 Hartree                     :      483.753731975    
 Madelung                    :     -1926.02906970    
 xc potential                :     -93.6624196284    
 xc effective B-field        :    -0.149420747153E-19
 external B-field            :      0.00000000000    
 exchange                    :     -70.5722002770    
 correlation                 :     -1.60922044781    
 DFT+U                       :     0.909904945235    
 electron entropic           :    -0.121648592826E-16
 total energy                :     -1595.89765853    
 (external B-field energy excluded from total)
 
Density of states at Fermi energy :   0.3554361249E-10
 (states/Hartree/unit cell)
 
Estimated indirect band gap :   0.6770004753E-01
 from k-point      3 to k-point      2
Estimated direct band gap   :   0.1182726682    
 at k-point      1
 
Charges :
 core                        :    14.00000000    
 valence                     :    22.00000000    
 interstitial                :    1.830477305    
 muffin-tins (core leakage)
  species :    1 (Ni)
   atom    1                 :    26.87030703     (  0.7128607836E-03)
  species :    2 (O)
   atom    1                 :    7.299215667     (  0.4602269905E-07)
 total in muffin-tins        :    34.16952270    
 total calculated charge     :    35.99838156    
 total charge                :    36.00000000    
 error                       :   0.1618438757E-02
 
Moments :
 interstitial                :   0.2224322787E-26 -0.6188275011E-27  0.1992159610E-26
 muffin-tins
  species :    1 (Ni)
   atom    1                 :  -0.1736531225E-26 -0.7435027453E-27  0.1163043132E-26
  species :    2 (O)
   atom    1                 :  -0.1263992956E-27  0.2705758120E-26  0.4628759096E-27
 total in muffin-tins        :  -0.1862930521E-26  0.1962255375E-26  0.1625919042E-26
 total moment                :   0.3613922658E-27  0.1343427874E-26  0.3618078652E-26
 
RMS change in Kohn-Sham potential (target) :   0.4818654270E-07 (  0.1000000000E-06)
Absolute change in total energy (target)   :   0.6013938219E-06 (  0.1000000000E-05)
 
Convergence targets achieved
 
Time (CPU seconds) :       119.91
 
+--------------------+
| Loop number :   38 |
+--------------------+
 
Energies :
 Fermi                       :     0.255578408359    
 sum of eigenvalues          :     -910.266102328    
 electron kinetic            :      1619.40953607    
 core electron kinetic       :      1444.78919342    
 Coulomb                     :     -3144.03567893    
 Coulomb potential           :     -2436.01321879    
 nuclear-nuclear             :     -224.268728362    
 electron-nuclear            :     -3403.52068234    
 Hartree                     :      483.753731775    
 Madelung                    :     -1926.02906953    
 xc potential                :     -93.6624196067    
 xc effective B-field        :    -0.148964151353E-18
 external B-field            :      0.00000000000    
 exchange                    :     -70.5722002612    
 correlation                 :     -1.60922044743    
 DFT+U                       :     0.909904942279    
 electron entropic           :    -0.121648592826E-16
 total energy                :     -1595.89765862    
 (external B-field energy excluded from total)
 
Density of states at Fermi energy :   0.3554360305E-10
 (states/Hartree/unit cell)
 
Estimated indirect band gap :   0.6770004459E-01
 from k-point      3 to k-point      2
Estimated direct band gap   :   0.1182726858    
 at k-point      1
 
Charges :
 core                        :    14.00000000    
 valence                     :    22.00000000    
 interstitial                :    1.830477309    
 muffin-tins (core leakage)
  species :    1 (Ni)
   atom    1                 :    26.87030701     (  0.7128608083E-03)
  species :    2 (O)
   atom    1                 :    7.299215684     (  0.4600784440E-07)
 total in muffin-tins        :    34.16952269    
 total calculated charge     :    35.99838156    
 total charge                :    36.00000000    
 error                       :   0.1618438754E-02
 
Moments :
 interstitial                :   0.1930544305E-26 -0.1158655747E-26 -0.5122607971E-27
 muffin-tins
  species :    1 (Ni)
   atom    1                 :   0.1107115379E-26  0.8546513032E-27  0.5281461065E-29
  species :    2 (O)
   atom    1                 :  -0.1468951071E-26  0.5228708466E-26  0.8260218425E-26
 total in muffin-tins        :  -0.3618356918E-27  0.6083359769E-26  0.8265499886E-26
 total moment                :   0.1568708613E-26  0.4924704022E-26  0.7753239089E-26
 
+------------------------------+
| Self-consistent loop stopped |
+------------------------------+
 
Wrote STATE.OUT
 
Timings (CPU seconds) :
 initialisation                        :         2.48
 Hamiltonian and overlap matrix set up :         3.58
 first-variational eigenvalue equation :         3.02
 second-variational calculation        :        97.67
 charge density calculation            :         3.49
 potential calculation                 :        12.93
 total                                 :       123.18
 
+----------------------------+
| Elk version 8.8.26 stopped |
+----------------------------+
