+----------------------------+
| Elk version 8.8.26 started |
+----------------------------+
 
Date (YYYY-MM-DD) : 2023-05-31
Time (hh:mm:ss)   : 15:36:16
 
All units are atomic (Hartree, Bohr, etc.)
 
+-------------------------------------------------+
| Ground-state run starting from atomic densities |
+-------------------------------------------------+
 
Lattice vectors :
   3.958977809       3.958977809       0.000000000    
   3.958977809      -3.958977809       0.000000000    
   3.958977809       0.000000000       3.958977809    
 
Reciprocal lattice vectors :
  0.7935363129      0.7935363129     -0.7935363129    
  0.7935363129     -0.7935363129     -0.7935363129    
   0.000000000       0.000000000       1.587072626    
 
Unit cell volume      :    124.1021193    
Brillouin zone volume :    1.998758884    
 
Muffin-tin inner radius fraction :   0.1000000000E-01
 
Species :    1 (Ni)
 parameters loaded from : Ni.in
 name : nickel
 nuclear charge    :   -28.00000000    
 electronic charge :    28.00000000    
 atomic mass :    106991.5230    
 muffin-tin radius :    2.233701605    
 number of radial points in muffin-tin :    497
 number on inner part of muffin-tin    :    349
 atomic positions (lattice), magnetic fields (Cartesian) :
   1 :   0.00000000  0.00000000  0.00000000    0.00000000  0.00000000  0.00000000
 
Species :    2 (O)
 parameters loaded from : O.in
 name : oxygen
 nuclear charge    :   -8.000000000    
 electronic charge :    8.000000000    
 atomic mass :    29165.12202    
 muffin-tin radius :    1.675276204    
 number of radial points in muffin-tin :    297
 number on inner part of muffin-tin    :    201
 atomic positions (lattice), magnetic fields (Cartesian) :
   1 :   0.50000000  0.50000000  0.00000000    0.00000000  0.00000000  0.00000000
 
Total number of atoms per unit cell :    2
 
Spin treatment :
 spin-unpolarised
 
Number of Bravais lattice symmetries :   48
Number of crystal symmetries         :   48
Crystal has inversion symmetry
Real symmetric eigensolver will be used
 
k-point grid :      6     6     4
k-point offset :    0.000000000       0.000000000       0.000000000    
k-point set is reduced with full crystal symmetry group
Total number of k-points :       35
 
Muffin-tin radius times maximum |G+k| :    7.000000000    
 using average radius
Maximum |G+k| for APW functions       :    3.581498971    
Maximum (1/2)|G+k|²                   :    6.413567439    
Maximum |G| for potential and density :    12.00000000    
Constant for pseudocharge density :    7
Radial integration step length :    4
 
G-vector grid sizes :     24    24    24
Number of G-vectors :     3695
 
Maximum angular momentum used for
 APW functions                      :    8
 outer part of muffin-tin           :    6
 inner part of muffin-tin           :    1
 
Total nuclear charge    :   -36.00000000    
Total core charge       :    14.00000000    
Total valence charge    :    22.00000000    
Total excess charge     :    0.000000000    
Total electronic charge :    36.00000000    
 
Effective Wigner radius, rₛ :   0.9371217750    
 
Number of empty states         :   16
Total number of valence states :   28
Total number of core states    :   14
 
Total number of local-orbitals :   22
 
Exchange-correlation functional :      3     0     0
 Perdew-Wang/Ceperley-Alder, Phys. Rev. B 45, 13244 (1992)
 Local density approximation (LDA)
 
DFT+U calculation
 fully localised limit (FLL)
 see Phys. Rev. B 52, R5467 (1995)
 species :    1 (Ni), l =  2
 Slater integrals are calculated by means of Yukawa potential
 Yukawa potential screening length corresponds to U =   0.14500000
 
Smearing type :    3
 Fermi-Dirac
Automatic determination of smearing width
 
Mixing type :    3
 Broyden mixing, J. Phys. A: Math. Gen. 17, L317 (1984)
 
Kohn-Sham potential initialised from atomic data
 
+------------------------------+
| Self-consistent loop started |
+------------------------------+
 
+--------------------+
| Loop number :    1 |
+--------------------+
 
New smearing width :   0.1000000000E-02
 
Energies :
 Fermi                       :     0.996436586848E-01
 sum of eigenvalues          :     -915.001659797    
 electron kinetic            :      1611.38942950    
 core electron kinetic       :      1440.38822140    
 Coulomb                     :     -3141.18646424    
 Coulomb potential           :     -2434.71727870    
 nuclear-nuclear             :     -222.318223068    
 electron-nuclear            :     -3403.01920365    
 Hartree                     :      484.150962478    
 Madelung                    :     -1923.82782489    
 xc potential                :     -91.6738105995    
 exchange                    :     -66.2567069906    
 correlation                 :     -3.02290462796    
 DFT+U                       :     0.187429167789    
 electron entropic           :    -0.258577091680E-03
 total energy                :     -1598.88947577    
 
Density of states at Fermi energy :    81.44515977    
 (states/Hartree/unit cell)
 
Estimated indirect band gap :   0.3290335738E-03
 from k-point     18 to k-point     23
Estimated direct band gap   :   0.1635897456E-01
 at k-point     26
 
Charges :
 core                        :    14.00000000    
 valence                     :    22.00000000    
 interstitial                :    1.803497051    
 muffin-tins (core leakage)
  species :    1 (Ni)
   atom    1                 :    26.70608539     (  0.6890154122E-03)
  species :    2 (O)
   atom    1                 :    7.490417564     (  0.4398950157E-07)
 total in muffin-tins        :    34.19650295    
 total calculated charge     :    36.00323919    
 total charge                :    36.00000000    
 error                       :   0.3239192529E-02
 
Time (CPU seconds) :         3.46
 
+--------------------+
| Loop number :    2 |
+--------------------+
 
New smearing width :   0.1145985732E-01
 
Energies :
 Fermi                       :     0.944509211439E-01
 sum of eigenvalues          :     -915.247954234    
 electron kinetic            :      1610.62058220    
 core electron kinetic       :      1440.40043100    
 Coulomb                     :     -3141.93248123    
 Coulomb potential           :     -2434.09091047    
 nuclear-nuclear             :     -222.318223068    
 electron-nuclear            :     -3405.13760585    
 Hartree                     :      485.523347692    
 Madelung                    :     -1924.88702599    
 xc potential                :     -91.7776259679    
 exchange                    :     -66.3328510789    
 correlation                 :     -3.02509852731    
 DFT+U                       :     0.189552842746    
 electron entropic           :    -0.211631439060E-01
 total energy                :     -1600.50145893    
 
Density of states at Fermi energy :    50.47599984    
 (states/Hartree/unit cell)
 
Estimated indirect band gap :   0.1040545497E-02
 from k-point     20 to k-point     25
Estimated direct band gap   :   0.1834139058E-01
 at k-point     26
 
Charges :
 core                        :    14.00000000    
 valence                     :    22.00000000    
 interstitial                :    1.778365110    
 muffin-tins (core leakage)
  species :    1 (Ni)
   atom    1                 :    26.73963287     (  0.6891754666E-03)
  species :    2 (O)
   atom    1                 :    7.482002020     (  0.4399614786E-07)
 total in muffin-tins        :    34.22163489    
 total calculated charge     :    36.00320930    
 total charge                :    36.00000000    
 error                       :   0.3209296570E-02
 
RMS change in Kohn-Sham potential (target) :   0.2765446347     (  0.1000000000E-05)
Absolute change in total energy (target)   :    1.611983163     (  0.1000000000E-03)
 
Time (CPU seconds) :         4.92
 
+--------------------+
| Loop number :    3 |
+--------------------+
 
New smearing width :   0.1135969614E-01
 
Energies :
 Fermi                       :     0.951916600854E-01
 sum of eigenvalues          :     -915.237594911    
 electron kinetic            :      1610.63919268    
 core electron kinetic       :      1440.41998277    
 Coulomb                     :     -3141.93647987    
 Coulomb potential           :     -2434.09771054    
 nuclear-nuclear             :     -222.318223068    
 electron-nuclear            :     -3405.13880307    
 Hartree                     :      485.520546264    
 Madelung                    :     -1924.88762460    
 xc potential                :     -91.7790770544    
 exchange                    :     -66.3339084492    
 correlation                 :     -3.02513789870    
 DFT+U                       :     0.189518665549    
 electron entropic           :    -0.207894782700E-01
 total energy                :     -1600.48760435    
 
Density of states at Fermi energy :    50.57033921    
 (states/Hartree/unit cell)
 
Estimated indirect band gap :   0.1143748643E-02
 from k-point     20 to k-point     25
Estimated direct band gap   :   0.1827360437E-01
 at k-point     26
 
Charges :
 core                        :    14.00000000    
 valence                     :    22.00000000    
 interstitial                :    1.778328239    
 muffin-tins (core leakage)
  species :    1 (Ni)
   atom    1                 :    26.73656960     (  0.6895096651E-03)
  species :    2 (O)
   atom    1                 :    7.485102163     (  0.4394487756E-07)
 total in muffin-tins        :    34.22167176    
 total calculated charge     :    36.00321490    
 total charge                :    36.00000000    
 error                       :   0.3214901723E-02
 
RMS change in Kohn-Sham potential (target) :   0.2767276507     (  0.1000000000E-05)
Absolute change in total energy (target)   :   0.3891412062     (  0.1000000000E-03)
 
Time (CPU seconds) :         6.58
 
+--------------------+
| Loop number :    4 |
+--------------------+
 
New smearing width :   0.1137966216E-01
 
Energies :
 Fermi                       :     0.949311413219E-01
 sum of eigenvalues          :     -915.259914528    
 electron kinetic            :      1610.64020344    
 core electron kinetic       :      1440.42696366    
 Coulomb                     :     -3141.93403968    
 Coulomb potential           :     -2434.12160321    
 nuclear-nuclear             :     -222.318223068    
 electron-nuclear            :     -3405.11003002    
 Hartree                     :      485.494213406    
 Madelung                    :     -1924.87323808    
 xc potential                :     -91.7785147594    
 exchange                    :     -66.3334883162    
 correlation                 :     -3.02513558428    
 DFT+U                       :     0.189505063116    
 electron entropic           :    -0.208532453299E-01
 total energy                :     -1600.48380832    
 
Density of states at Fermi energy :    50.56928755    
 (states/Hartree/unit cell)
 
Estimated indirect band gap :   0.1166400641E-02
 from k-point     20 to k-point     25
Estimated direct band gap   :   0.1826175405E-01
 at k-point     26
 
Charges :
 core                        :    14.00000000    
 valence                     :    22.00000000    
 interstitial                :    1.777317906    
 muffin-tins (core leakage)
  species :    1 (Ni)
   atom    1                 :    26.73552272     (  0.6890643396E-03)
  species :    2 (O)
   atom    1                 :    7.487159377     (  0.4395703979E-07)
 total in muffin-tins        :    34.22268209    
 total calculated charge     :    36.00322138    
 total charge                :    36.00000000    
 error                       :   0.3221376832E-02
 
RMS change in Kohn-Sham potential (target) :   0.2769222435     (  0.1000000000E-05)
Absolute change in total energy (target)   :   0.9348927724E-01 (  0.1000000000E-03)
 
Time (CPU seconds) :         8.04
 
+--------------------+
| Loop number :    5 |
+--------------------+
 
New smearing width :   0.1138018605E-01
 
Energies :
 Fermi                       :     0.944006819915E-01
 sum of eigenvalues          :     -915.287722621    
 electron kinetic            :      1610.63306584    
 core electron kinetic       :      1441.06698487    
 Coulomb                     :     -3141.91067043    
 Coulomb potential           :     -2434.14600370    
 nuclear-nuclear             :     -222.318223068    
 electron-nuclear            :     -3405.03889103    
 Hartree                     :      485.446443662    
 Madelung                    :     -1924.83766858    
 xc potential                :     -91.7747847568    
 exchange                    :     -66.3307488589    
 correlation                 :     -3.02506123787    
 DFT+U                       :     0.189550994097    
 electron entropic           :    -0.208331791551E-01
 total energy                :     -1600.46469688    
 
Density of states at Fermi energy :    50.51575825    
 (states/Hartree/unit cell)
 
Estimated indirect band gap :   0.1138609099E-02
 from k-point     20 to k-point     25
Estimated direct band gap   :   0.1829741103E-01
 at k-point     26
 
Charges :
 core                        :    14.00000000    
 valence                     :    22.00000000    
 interstitial                :    1.776700374    
 muffin-tins (core leakage)
  species :    1 (Ni)
   atom    1                 :    26.73675196     (  0.6884871739E-03)
  species :    2 (O)
   atom    1                 :    7.486547667     (  0.4398249072E-07)
 total in muffin-tins        :    34.22329963    
 total calculated charge     :    36.00322177    
 total charge                :    36.00000000    
 error                       :   0.3221768814E-02
 
RMS change in Kohn-Sham potential (target) :   0.2767473419     (  0.1000000000E-05)
Absolute change in total energy (target)   :   0.4260870425E-02 (  0.1000000000E-03)
 
Time (CPU seconds) :         9.44
 
+--------------------+
| Loop number :    6 |
+--------------------+
 
New smearing width :   0.1148994739E-01
 
Energies :
 Fermi                       :     0.743483307300E-01
 sum of eigenvalues          :     -916.328927422    
 electron kinetic            :      1608.77000850    
 core electron kinetic       :      1453.32837250    
 Coulomb                     :     -3144.55860543    
 Coulomb potential           :     -2433.02543289    
 nuclear-nuclear             :     -222.318223068    
 electron-nuclear            :     -3411.45533184    
 Hartree                     :      489.214949476    
 Madelung                    :     -1928.04588899    
 xc potential                :     -92.0735030346    
 exchange                    :     -66.5502503043    
 correlation                 :     -3.03086639548    
 DFT+U                       :     0.191765498840    
 electron entropic           :    -0.210379037726E-01
 total energy                :     -1605.19898604    
 
Density of states at Fermi energy :    50.02222809    
 (states/Hartree/unit cell)
 
Estimated indirect band gap :   0.2345581580E-02
 from k-point      6 to k-point     25
Estimated direct band gap   :   0.1889495767E-01
 at k-point     26
 
Charges :
 core                        :    14.00000000    
 valence                     :    22.00000000    
 interstitial                :    1.726404798    
 muffin-tins (core leakage)
  species :    1 (Ni)
   atom    1                 :    26.79186567     (  0.6650495627E-03)
  species :    2 (O)
   atom    1                 :    7.481729531     (  0.4377040192E-07)
 total in muffin-tins        :    34.27359520    
 total calculated charge     :    36.00315982    
 total charge                :    36.00000000    
 error                       :   0.3159822391E-02
 
RMS change in Kohn-Sham potential (target) :   0.3291405023     (  0.1000000000E-05)
Absolute change in total energy (target)   :    4.735354378     (  0.1000000000E-03)
 
Time (CPU seconds) :        11.38
 
+--------------------+
| Loop number :    7 |
+--------------------+
 
New smearing width :   0.1246166732E-01
 
Energies :
 Fermi                       :    -0.195865617757    
 sum of eigenvalues          :     -937.520982697    
 electron kinetic            :      1567.48763001    
 core electron kinetic       :      1455.40746528    
 Coulomb                     :     -3186.49152336    
 Coulomb potential           :     -2407.93111710    
 nuclear-nuclear             :     -222.318223068    
 electron-nuclear            :     -3520.41548347    
 Hartree                     :      556.242183184    
 Madelung                    :     -1982.52596480    
 xc potential                :     -97.0774956055    
 exchange                    :     -70.2306246626    
 correlation                 :     -3.12384282757    
 DFT+U                       :     0.251848066748    
 electron entropic           :    -0.297434470248E-01
 total energy                :     -1692.13625621    
 
Density of states at Fermi energy :    62.83391488    
 (states/Hartree/unit cell)
 
Estimated indirect band gap :   0.1385169061E-02
 from k-point     26 to k-point     20
Estimated direct band gap   :   0.1011315737E-01
 at k-point      9
 
Charges :
 core                        :    14.00000000    
 valence                     :    22.00000000    
 interstitial                :   0.9838043775    
 muffin-tins (core leakage)
  species :    1 (Ni)
   atom    1                 :    28.20631420     (  0.3372952061E-03)
  species :    2 (O)
   atom    1                 :    6.809881427     (  0.3990793964E-07)
 total in muffin-tins        :    35.01619562    
 total calculated charge     :    36.00054891    
 total charge                :    36.00000000    
 error                       :   0.5489123192E-03
 
RMS change in Kohn-Sham potential (target) :    2.370773109     (  0.1000000000E-05)
Absolute change in total energy (target)   :    88.12110877     (  0.1000000000E-03)
 
Time (CPU seconds) :        12.93
 
+--------------------+
| Loop number :    8 |
+--------------------+
 
New smearing width :   0.1026112647E-01
 
Energies :
 Fermi                       :    -0.382238663435    
 sum of eigenvalues          :     -957.878845626    
 electron kinetic            :      1542.45360141    
 core electron kinetic       :      1449.31406718    
 Coulomb                     :     -3208.98184653    
 Coulomb potential           :     -2400.62704808    
 nuclear-nuclear             :     -222.318223068    
 electron-nuclear            :     -3572.70019885    
 Hartree                     :      586.036575387    
 Madelung                    :     -2008.66832249    
 xc potential                :     -99.7053989566    
 exchange                    :     -72.1642803876    
 correlation                 :     -3.17154530169    
 DFT+U                       :     0.250743384716    
 electron entropic           :    -0.294032435045E-01
 total energy                :     -1741.64273067    
 
Density of states at Fermi energy :    93.81355569    
 (states/Hartree/unit cell)
 
Estimated indirect band gap :   0.8750891133E-03
 from k-point     21 to k-point      5
Estimated direct band gap   :   0.5098418489E-02
 at k-point     21
 
Charges :
 core                        :    14.00000000    
 valence                     :    22.00000000    
 interstitial                :   0.6909437217    
 muffin-tins (core leakage)
  species :    1 (Ni)
   atom    1                 :    28.22139231     (  0.1923529093E-03)
  species :    2 (O)
   atom    1                 :    7.087663972     (  0.3677416039E-07)
 total in muffin-tins        :    35.30905628    
 total calculated charge     :    35.99968685    
 total charge                :    36.00000000    
 error                       :   0.3131543442E-03
 
RMS change in Kohn-Sham potential (target) :    3.494915530     (  0.1000000000E-05)
Absolute change in total energy (target)   :    71.53675165     (  0.1000000000E-03)
 
Time (CPU seconds) :        14.80
 
+--------------------+
| Loop number :    9 |
+--------------------+
 
New smearing width :   0.6239338381E-02
 
Energies :
 Fermi                       :    -0.425408661801    
 sum of eigenvalues          :     -962.002774810    
 electron kinetic            :      1537.88961339    
 core electron kinetic       :      1441.50856443    
 Coulomb                     :     -3212.68185786    
 Coulomb potential           :     -2399.76387449    
 nuclear-nuclear             :     -222.318223068    
 electron-nuclear            :     -3580.96339510    
 Hartree                     :      590.599760309    
 Madelung                    :     -2012.79992062    
 xc potential                :     -100.128513712    
 exchange                    :     -72.4756751925    
 correlation                 :     -3.17914802326    
 DFT+U                       :     0.249665309652    
 electron entropic           :    -0.153014006512E-01
 total energy                :     -1750.21270378    
 
Density of states at Fermi energy :    130.7019331    
 (states/Hartree/unit cell)
 
Estimated indirect band gap :   0.3294136468E-03
 from k-point      7 to k-point     19
Estimated direct band gap   :   0.3324529499E-02
 at k-point     19
 
Charges :
 core                        :    14.00000000    
 valence                     :    22.00000000    
 interstitial                :   0.6452148028    
 muffin-tins (core leakage)
  species :    1 (Ni)
   atom    1                 :    28.20848324     (  0.1729482575E-03)
  species :    2 (O)
   atom    1                 :    7.146301954     (  0.3588655321E-07)
 total in muffin-tins        :    35.35478520    
 total calculated charge     :    35.99964299    
 total charge                :    36.00000000    
 error                       :   0.3570055557E-03
 
RMS change in Kohn-Sham potential (target) :    3.688389754     (  0.1000000000E-05)
Absolute change in total energy (target)   :    26.45416102     (  0.1000000000E-03)
 
Time (CPU seconds) :        16.44
 
+--------------------+
| Loop number :   10 |
+--------------------+
 
New smearing width :   0.1279054869E-01
 
Energies :
 Fermi                       :    -0.327048468174    
 sum of eigenvalues          :     -950.171990500    
 electron kinetic            :      1551.62787802    
 core electron kinetic       :      1421.68717113    
 Coulomb                     :     -3202.24367479    
 Coulomb potential           :     -2402.88208584    
 nuclear-nuclear             :     -222.318223068    
 electron-nuclear            :     -3556.96881760    
 Hartree                     :      577.043365880    
 Madelung                    :     -2000.80263187    
 xc potential                :     -98.9177826750    
 exchange                    :     -71.5844707376    
 correlation                 :     -3.15758521035    
 DFT+U                       :     0.252178893603    
 electron entropic           :    -0.375872733337E-01
 total energy                :     -1725.14326110    
 
Density of states at Fermi energy :    77.20142576    
 (states/Hartree/unit cell)
 
Estimated indirect band gap :   0.2466405757E-02
 from k-point     28 to k-point      8
Estimated direct band gap   :   0.6449287388E-02
 at k-point      7
 
Charges :
 core                        :    14.00000000    
 valence                     :    22.00000000    
 interstitial                :   0.7614732880    
 muffin-tins (core leakage)
  species :    1 (Ni)
   atom    1                 :    28.22020229     (  0.2373412767E-03)
  species :    2 (O)
   atom    1                 :    7.018324418     (  0.3774319764E-07)
 total in muffin-tins        :    35.23852671    
 total calculated charge     :    36.00001994    
 total charge                :    36.00000000    
 error                       :   0.1993798765E-04
 
RMS change in Kohn-Sham potential (target) :    3.129363137     (  0.1000000000E-05)
Absolute change in total energy (target)   :    18.45590243     (  0.1000000000E-03)
 
Time (CPU seconds) :        18.03
 
+--------------------+
| Loop number :   11 |
+--------------------+
 
New smearing width :   0.1073154229E-01
 
Energies :
 Fermi                       :     0.290147526694    
 sum of eigenvalues          :     -907.111329003    
 electron kinetic            :      1625.49308594    
 core electron kinetic       :      1440.38550304    
 Coulomb                     :     -3129.26812145    
 Coulomb potential           :     -2442.29052571    
 nuclear-nuclear             :     -222.318223068    
 electron-nuclear            :     -3371.60927105    
 Hartree                     :      464.659372671    
 Madelung                    :     -1908.12285859    
 xc potential                :     -90.3138892368    
 exchange                    :     -65.2577432489    
 correlation                 :     -2.99607024654    
 DFT+U                       :     0.155386683812    
 electron entropic           :    -0.342725492467E-01
 total energy                :     -1571.90773487    
 
Density of states at Fermi energy :    91.76995994    
 (states/Hartree/unit cell)
 
Estimated indirect band gap :   0.1117840371E-02
 from k-point     32 to k-point     26
Estimated direct band gap   :   0.1309660618E-01
 at k-point     26
 
Charges :
 core                        :    14.00000000    
 valence                     :    22.00000000    
 interstitial                :    2.125785709    
 muffin-tins (core leakage)
  species :    1 (Ni)
   atom    1                 :    26.02501402     (  0.8720284927E-03)
  species :    2 (O)
   atom    1                 :    7.849200275     (  0.4412032579E-07)
 total in muffin-tins        :    33.87421429    
 total calculated charge     :    36.00406106    
 total charge                :    36.00000000    
 error                       :   0.4061062597E-02
 
RMS change in Kohn-Sham potential (target) :   0.6918877882     (  0.1000000000E-05)
Absolute change in total energy (target)   :    157.8495018     (  0.1000000000E-03)
 
Time (CPU seconds) :        19.57
 
+--------------------+
| Loop number :   12 |
+--------------------+
 
New smearing width :   0.7205419118E-02
 
Energies :
 Fermi                       :     0.311532645675    
 sum of eigenvalues          :     -907.159971078    
 electron kinetic            :      1623.90969615    
 core electron kinetic       :      1442.72568444    
 Coulomb                     :     -3132.19277392    
 Coulomb potential           :     -2440.51327412    
 nuclear-nuclear             :     -222.318223068    
 electron-nuclear            :     -3379.23582759    
 Hartree                     :      469.361276733    
 Madelung                    :     -1911.93613686    
 xc potential                :     -90.5563931006    
 exchange                    :     -65.4368379328    
 correlation                 :     -2.99965631998    
 DFT+U                       :     0.170000063945    
 electron entropic           :    -0.110547343161E-01
 total energy                :     -1576.56062670    
 
Density of states at Fermi energy :    64.70062301    
 (states/Hartree/unit cell)
 
Estimated indirect band gap :   0.1421297065E-02
 from k-point     23 to k-point      8
Estimated direct band gap   :   0.1410758759E-01
 at k-point     26
 
Charges :
 core                        :    14.00000000    
 valence                     :    22.00000000    
 interstitial                :    2.132521356    
 muffin-tins (core leakage)
  species :    1 (Ni)
   atom    1                 :    26.25587970     (  0.8246815389E-03)
  species :    2 (O)
   atom    1                 :    7.611598947     (  0.4507553471E-07)
 total in muffin-tins        :    33.86747864    
 total calculated charge     :    36.00334949    
 total charge                :    36.00000000    
 error                       :   0.3349494798E-02
 
RMS change in Kohn-Sham potential (target) :   0.4796373549     (  0.1000000000E-05)
Absolute change in total energy (target)   :    34.80948362     (  0.1000000000E-03)
 
Time (CPU seconds) :        20.72
 
+--------------------+
| Loop number :   13 |
+--------------------+
 
New smearing width :   0.1284710146E-01
 
Energies :
 Fermi                       :     0.222087607436    
 sum of eigenvalues          :     -911.253129041    
 electron kinetic            :      1612.63298785    
 core electron kinetic       :      1439.66683135    
 Coulomb                     :     -3144.15824506    
 Coulomb potential           :     -2431.98589905    
 nuclear-nuclear             :     -222.318223068    
 electron-nuclear            :     -3411.69414493    
 Hartree                     :      489.854122941    
 Madelung                    :     -1928.16529554    
 xc potential                :     -91.9002178350    
 exchange                    :     -66.4248366597    
 correlation                 :     -3.02509963946    
 DFT+U                       :     0.195777729282    
 electron entropic           :    -0.231114047089E-01
 total energy                :     -1600.80252719    
 
Density of states at Fermi energy :    43.35105533    
 (states/Hartree/unit cell)
 
Estimated indirect band gap :   0.1765672529E-02
 from k-point     25 to k-point     29
Estimated direct band gap   :   0.2029512192E-01
 at k-point     19
 
Charges :
 core                        :    14.00000000    
 valence                     :    22.00000000    
 interstitial                :    1.879467996    
 muffin-tins (core leakage)
  species :    1 (Ni)
   atom    1                 :    27.00369215     (  0.6734974562E-03)
  species :    2 (O)
   atom    1                 :    7.116839850     (  0.4493703603E-07)
 total in muffin-tins        :    34.12053200    
 total calculated charge     :    36.00206228    
 total charge                :    36.00000000    
 error                       :   0.2062278727E-02
 
RMS change in Kohn-Sham potential (target) :   0.2251778084     (  0.1000000000E-05)
Absolute change in total energy (target)   :    15.53952958     (  0.1000000000E-03)
 
Time (CPU seconds) :        22.46
 
+--------------------+
| Loop number :   14 |
+--------------------+
 
New smearing width :   0.1133231770E-01
 
Energies :
 Fermi                       :     0.240714254994    
 sum of eigenvalues          :     -909.686604552    
 electron kinetic            :      1616.55830326    
 core electron kinetic       :      1440.50043058    
 Coulomb                     :     -3139.61295077    
 Coulomb potential           :     -2434.81161510    
 nuclear-nuclear             :     -222.318223068    
 electron-nuclear            :     -3399.77784030    
 Hartree                     :      482.483112598    
 Madelung                    :     -1922.20714322    
 xc potential                :     -91.4332927126    
 exchange                    :     -66.0809516562    
 correlation                 :     -3.01700519884    
 DFT+U                       :     0.187451067137    
 electron entropic           :    -0.207851989243E-01
 total energy                :     -1591.98593849    
 
Density of states at Fermi energy :    49.62531207    
 (states/Hartree/unit cell)
 
Estimated indirect band gap :   0.2972902445E-02
 from k-point     25 to k-point     29
Estimated direct band gap   :   0.1869563015E-01
 at k-point     26
 
Charges :
 core                        :    14.00000000    
 valence                     :    22.00000000    
 interstitial                :    1.926697843    
 muffin-tins (core leakage)
  species :    1 (Ni)
   atom    1                 :    26.74871938     (  0.7241059460E-03)
  species :    2 (O)
   atom    1                 :    7.324582779     (  0.4437189079E-07)
 total in muffin-tins        :    34.07330216    
 total calculated charge     :    36.00271156    
 total charge                :    36.00000000    
 error                       :   0.2711564791E-02
 
RMS change in Kohn-Sham potential (target) :   0.4611456258E-01 (  0.1000000000E-05)
Absolute change in total energy (target)   :    4.931706302     (  0.1000000000E-03)
 
Time (CPU seconds) :        24.01
 
+--------------------+
| Loop number :   15 |
+--------------------+
 
New smearing width :   0.1159914168E-01
 
Energies :
 Fermi                       :     0.240098038141    
 sum of eigenvalues          :     -909.804405567    
 electron kinetic            :      1615.96633277    
 core electron kinetic       :      1440.40203344    
 Coulomb                     :     -3140.19102552    
 Coulomb potential           :     -2434.26749853    
 nuclear-nuclear             :     -222.318223068    
 electron-nuclear            :     -3401.47810639    
 Hartree                     :      483.605303932    
 Madelung                    :     -1923.05727626    
 xc potential                :     -91.5032398158    
 exchange                    :     -66.1323749380    
 correlation                 :     -3.01833341121    
 DFT+U                       :     0.189191118890    
 electron entropic           :    -0.209513901862E-01
 total energy                :     -1593.20716137    
 
Density of states at Fermi energy :    48.01840647    
 (states/Hartree/unit cell)
 
Estimated indirect band gap :   0.2470772421E-02
 from k-point     20 to k-point     29
Estimated direct band gap   :   0.1940766827E-01
 at k-point     26
 
Charges :
 core                        :    14.00000000    
 valence                     :    22.00000000    
 interstitial                :    1.914865836    
 muffin-tins (core leakage)
  species :    1 (Ni)
   atom    1                 :    26.79883581     (  0.7153345077E-03)
  species :    2 (O)
   atom    1                 :    7.286298358     (  0.4426518121E-07)
 total in muffin-tins        :    34.08513416    
 total calculated charge     :    36.00270700    
 total charge                :    36.00000000    
 error                       :   0.2707004716E-02
 
RMS change in Kohn-Sham potential (target) :   0.8379422555E-02 (  0.1000000000E-05)
Absolute change in total energy (target)   :   0.1170369664E-01 (  0.1000000000E-03)
 
Time (CPU seconds) :        25.27
 
+--------------------+
| Loop number :   16 |
+--------------------+
 
New smearing width :   0.1156092886E-01
 
Energies :
 Fermi                       :     0.239570645058    
 sum of eigenvalues          :     -909.769806236    
 electron kinetic            :      1615.89527716    
 core electron kinetic       :      1440.41739980    
 Coulomb                     :     -3140.19440868    
 Coulomb potential           :     -2434.15427139    
 nuclear-nuclear             :     -222.318223068    
 electron-nuclear            :     -3401.59809983    
 Hartree                     :      483.721914219    
 Madelung                    :     -1923.11727298    
 xc potential                :     -91.5108120025    
 exchange                    :     -66.1378832132    
 correlation                 :     -3.01855073981    
 DFT+U                       :     0.189574656701    
 electron entropic           :    -0.207634302642E-01
 total energy                :     -1593.28675425    
 
Density of states at Fermi energy :    47.85028372    
 (states/Hartree/unit cell)
 
Estimated indirect band gap :   0.2192180149E-02
 from k-point     20 to k-point     29
Estimated direct band gap   :   0.1959590920E-01
 at k-point     26
 
Charges :
 core                        :    14.00000000    
 valence                     :    22.00000000    
 interstitial                :    1.909832806    
 muffin-tins (core leakage)
  species :    1 (Ni)
   atom    1                 :    26.80889498     (  0.7148383375E-03)
  species :    2 (O)
   atom    1                 :    7.281272219     (  0.4414133303E-07)
 total in muffin-tins        :    34.09016719    
 total calculated charge     :    36.00274718    
 total charge                :    36.00000000    
 error                       :   0.2747183704E-02
 
RMS change in Kohn-Sham potential (target) :   0.2271094095E-02 (  0.1000000000E-05)
Absolute change in total energy (target)   :   0.7666695166E-01 (  0.1000000000E-03)
 
Time (CPU seconds) :        27.17
 
+--------------------+
| Loop number :   17 |
+--------------------+
 
New smearing width :   0.1154748485E-01
 
Energies :
 Fermi                       :     0.239821082856    
 sum of eigenvalues          :     -909.754172131    
 electron kinetic            :      1615.93913953    
 core electron kinetic       :      1440.43399624    
 Coulomb                     :     -3140.16451815    
 Coulomb potential           :     -2434.18489991    
 nuclear-nuclear             :     -222.318223068    
 electron-nuclear            :     -3401.50769025    
 Hartree                     :      483.661395168    
 Madelung                    :     -1923.07206819    
 xc potential                :     -91.5084117465    
 exchange                    :     -66.1361001476    
 correlation                 :     -3.01852825277    
 DFT+U                       :     0.189492784306    
 electron entropic           :    -0.207669341148E-01
 total energy                :     -1593.21128117    
 
Density of states at Fermi energy :    47.95238741    
 (states/Hartree/unit cell)
 
Estimated indirect band gap :   0.2280229042E-02
 from k-point     20 to k-point     29
Estimated direct band gap   :   0.1955562007E-01
 at k-point     26
 
Charges :
 core                        :    14.00000000    
 valence                     :    22.00000000    
 interstitial                :    1.909105943    
 muffin-tins (core leakage)
  species :    1 (Ni)
   atom    1                 :    26.80586480     (  0.7151580305E-03)
  species :    2 (O)
   atom    1                 :    7.285029257     (  0.4412005311E-07)
 total in muffin-tins        :    34.09089406    
 total calculated charge     :    36.00276308    
 total charge                :    36.00000000    
 error                       :   0.2763080271E-02
 
RMS change in Kohn-Sham potential (target) :   0.3826603354E-02 (  0.1000000000E-05)
Absolute change in total energy (target)   :   0.5630633850E-01 (  0.1000000000E-03)
 
Time (CPU seconds) :        28.34
 
+--------------------+
| Loop number :   18 |
+--------------------+
 
New smearing width :   0.1154967305E-01
 
Energies :
 Fermi                       :     0.239863820722    
 sum of eigenvalues          :     -909.756616814    
 electron kinetic            :      1615.92869627    
 core electron kinetic       :      1440.44153706    
 Coulomb                     :     -3140.18059017    
 Coulomb potential           :     -2434.17552431    
 nuclear-nuclear             :     -222.318223068    
 electron-nuclear            :     -3401.54920991    
 Hartree                     :      483.686842800    
 Madelung                    :     -1923.09282802    
 xc potential                :     -91.5097887805    
 exchange                    :     -66.1371171566    
 correlation                 :     -3.01854856495    
 DFT+U                       :     0.189525873432    
 electron entropic           :    -0.207621093598E-01
 total energy                :     -1593.23879586    
 
Density of states at Fermi energy :    47.92395808    
 (states/Hartree/unit cell)
 
Estimated indirect band gap :   0.2247628509E-02
 from k-point     20 to k-point     29
Estimated direct band gap   :   0.1957207187E-01
 at k-point     26
 
Charges :
 core                        :    14.00000000    
 valence                     :    22.00000000    
 interstitial                :    1.909150264    
 muffin-tins (core leakage)
  species :    1 (Ni)
   atom    1                 :    26.80697424     (  0.7149986589E-03)
  species :    2 (O)
   atom    1                 :    7.283875494     (  0.4413150919E-07)
 total in muffin-tins        :    34.09084974    
 total calculated charge     :    36.00275977    
 total charge                :    36.00000000    
 error                       :   0.2759773677E-02
 
RMS change in Kohn-Sham potential (target) :   0.2640750717E-02 (  0.1000000000E-05)
Absolute change in total energy (target)   :   0.1343810326E-01 (  0.1000000000E-03)
 
Time (CPU seconds) :        29.58
 
+--------------------+
| Loop number :   19 |
+--------------------+
 
New smearing width :   0.1154674546E-01
 
Energies :
 Fermi                       :     0.239891998237    
 sum of eigenvalues          :     -909.763158943    
 electron kinetic            :      1615.91195456    
 core electron kinetic       :      1440.44529311    
 Coulomb                     :     -3140.21027720    
 Coulomb potential           :     -2434.16290763    
 nuclear-nuclear             :     -222.318223068    
 electron-nuclear            :     -3401.62120064    
 Hartree                     :      483.729146506    
 Madelung                    :     -1923.12882339    
 xc potential                :     -91.5122058735    
 exchange                    :     -66.1389021414    
 correlation                 :     -3.01858440367    
 DFT+U                       :     0.189576509943    
 electron entropic           :    -0.207373868588E-01
 total energy                :     -1593.28697007    
 
Density of states at Fermi energy :    47.88896432    
 (states/Hartree/unit cell)
 
Estimated indirect band gap :   0.2198122327E-02
 from k-point     20 to k-point     29
Estimated direct band gap   :   0.1959761419E-01
 at k-point     26
 
Charges :
 core                        :    14.00000000    
 valence                     :    22.00000000    
 interstitial                :    1.909199595    
 muffin-tins (core leakage)
  species :    1 (Ni)
   atom    1                 :    26.80864093     (  0.7147505001E-03)
  species :    2 (O)
   atom    1                 :    7.282159470     (  0.4415397073E-07)
 total in muffin-tins        :    34.09080040    
 total calculated charge     :    36.00275423    
 total charge                :    36.00000000    
 error                       :   0.2754226644E-02
 
RMS change in Kohn-Sham potential (target) :   0.5119957051E-03 (  0.1000000000E-05)
Absolute change in total energy (target)   :   0.5153373276E-01 (  0.1000000000E-03)
 
Time (CPU seconds) :        31.31
 
+--------------------+
| Loop number :   20 |
+--------------------+
 
New smearing width :   0.1154707283E-01
 
Energies :
 Fermi                       :     0.239838392955    
 sum of eigenvalues          :     -909.767517257    
 electron kinetic            :      1615.90444307    
 core electron kinetic       :      1440.44456820    
 Coulomb                     :     -3140.22032322    
 Coulomb potential           :     -2434.15895492    
 nuclear-nuclear             :     -222.318223068    
 electron-nuclear            :     -3401.64524538    
 Hartree                     :      483.743145226    
 Madelung                    :     -1923.14084576    
 xc potential                :     -91.5130054056    
 exchange                    :     -66.1394925909    
 correlation                 :     -3.01859624648    
 DFT+U                       :     0.189592947063    
 electron entropic           :    -0.207349568734E-01
 total energy                :     -1593.30511099    
 
Density of states at Fermi energy :    47.87808694    
 (states/Hartree/unit cell)
 
Estimated indirect band gap :   0.2181045131E-02
 from k-point     20 to k-point     29
Estimated direct band gap   :   0.1960681762E-01
 at k-point     26
 
Charges :
 core                        :    14.00000000    
 valence                     :    22.00000000    
 interstitial                :    1.909211662    
 muffin-tins (core leakage)
  species :    1 (Ni)
   atom    1                 :    26.80919649     (  0.7146817413E-03)
  species :    2 (O)
   atom    1                 :    7.281591852     (  0.4415140800E-07)
 total in muffin-tins        :    34.09078834    
 total calculated charge     :    36.00275229    
 total charge                :    36.00000000    
 error                       :   0.2752287384E-02
 
RMS change in Kohn-Sham potential (target) :   0.4547791846E-03 (  0.1000000000E-05)
Absolute change in total energy (target)   :   0.3102436030E-01 (  0.1000000000E-03)
 
Time (CPU seconds) :        32.52
 
+--------------------+
| Loop number :   21 |
+--------------------+
 
New smearing width :   0.1154717659E-01
 
Energies :
 Fermi                       :     0.239781189596    
 sum of eigenvalues          :     -909.768388271    
 electron kinetic            :      1615.90380196    
 core electron kinetic       :      1440.44330437    
 Coulomb                     :     -3140.21745497    
 Coulomb potential           :     -2434.15938671    
 nuclear-nuclear             :     -222.318223068    
 electron-nuclear            :     -3401.63907708    
 Hartree                     :      483.739845185    
 Madelung                    :     -1923.13776161    
 xc potential                :     -91.5128035214    
 exchange                    :     -66.1393432289    
 correlation                 :     -3.01859359760    
 DFT+U                       :     0.189590267989    
 electron entropic           :    -0.207369599809E-01
 total energy                :     -1593.30273652    
 
Density of states at Fermi energy :    47.88090173    
 (states/Hartree/unit cell)
 
Estimated indirect band gap :   0.2183576957E-02
 from k-point     20 to k-point     29
Estimated direct band gap   :   0.1960582647E-01
 at k-point     26
 
Charges :
 core                        :    14.00000000    
 valence                     :    22.00000000    
 interstitial                :    1.909187336    
 muffin-tins (core leakage)
  species :    1 (Ni)
   atom    1                 :    26.80910800     (  0.7147113946E-03)
  species :    2 (O)
   atom    1                 :    7.281704664     (  0.4414857489E-07)
 total in muffin-tins        :    34.09081266    
 total calculated charge     :    36.00275285    
 total charge                :    36.00000000    
 error                       :   0.2752853964E-02
 
RMS change in Kohn-Sham potential (target) :   0.2534113363E-03 (  0.1000000000E-05)
Absolute change in total energy (target)   :   0.5381618534E-02 (  0.1000000000E-03)
 
Time (CPU seconds) :        33.72
 
+--------------------+
| Loop number :   22 |
+--------------------+
 
New smearing width :   0.1154669105E-01
 
Energies :
 Fermi                       :     0.239768973602    
 sum of eigenvalues          :     -909.768066396    
 electron kinetic            :      1615.90561578    
 core electron kinetic       :      1440.44328402    
 Coulomb                     :     -3140.21404393    
 Coulomb potential           :     -2434.16115783    
 nuclear-nuclear             :     -222.318223068    
 electron-nuclear            :     -3401.63048389    
 Hartree                     :      483.734663030    
 Madelung                    :     -1923.13346501    
 xc potential                :     -91.5125243453    
 exchange                    :     -66.1391369467    
 correlation                 :     -3.01858960136    
 DFT+U                       :     0.189583856592    
 electron entropic           :    -0.207374125112E-01
 total energy                :     -1593.29730825    
 
Density of states at Fermi energy :    47.88621698    
 (states/Hartree/unit cell)
 
Estimated indirect band gap :   0.2190237766E-02
 from k-point     20 to k-point     29
Estimated direct band gap   :   0.1960247384E-01
 at k-point     26
 
Charges :
 core                        :    14.00000000    
 valence                     :    22.00000000    
 interstitial                :    1.909173447    
 muffin-tins (core leakage)
  species :    1 (Ni)
   atom    1                 :    26.80888850     (  0.7147423160E-03)
  species :    2 (O)
   atom    1                 :    7.281938058     (  0.4411795823E-07)
 total in muffin-tins        :    34.09082655    
 total calculated charge     :    36.00275362    
 total charge                :    36.00000000    
 error                       :   0.2753616990E-02
 
RMS change in Kohn-Sham potential (target) :   0.9962751671E-05 (  0.1000000000E-05)
Absolute change in total energy (target)   :   0.4082863301E-02 (  0.1000000000E-03)
 
Time (CPU seconds) :        35.38
 
+--------------------+
| Loop number :   23 |
+--------------------+
 
New smearing width :   0.1154644006E-01
 
Energies :
 Fermi                       :     0.239770461986    
 sum of eigenvalues          :     -909.768167512    
 electron kinetic            :      1615.90542959    
 core electron kinetic       :      1440.44323378    
 Coulomb                     :     -3140.21427630    
 Coulomb potential           :     -2434.16105501    
 nuclear-nuclear             :     -222.318223068    
 electron-nuclear            :     -3401.63105145    
 Hartree                     :      483.734998220    
 Madelung                    :     -1923.13374879    
 xc potential                :     -91.5125420926    
 exchange                    :     -66.1391500938    
 correlation                 :     -3.01858981338    
 DFT+U                       :     0.189584335176    
 electron entropic           :    -0.207361325350E-01
 total energy                :     -1593.29773841    
 
Density of states at Fermi energy :    47.88570737    
 (states/Hartree/unit cell)
 
Estimated indirect band gap :   0.2189995870E-02
 from k-point     20 to k-point     29
Estimated direct band gap   :   0.1960258826E-01
 at k-point     26
 
Charges :
 core                        :    14.00000000    
 valence                     :    22.00000000    
 interstitial                :    1.909176816    
 muffin-tins (core leakage)
  species :    1 (Ni)
   atom    1                 :    26.80890126     (  0.7147395757E-03)
  species :    2 (O)
   atom    1                 :    7.281921926     (  0.4415568922E-07)
 total in muffin-tins        :    34.09082318    
 total calculated charge     :    36.00275360    
 total charge                :    36.00000000    
 error                       :   0.2753596340E-02
 
RMS change in Kohn-Sham potential (target) :   0.6381377393E-05 (  0.1000000000E-05)
Absolute change in total energy (target)   :   0.5905572277E-03 (  0.1000000000E-03)
 
Time (CPU seconds) :        37.10
 
+--------------------+
| Loop number :   24 |
+--------------------+
 
New smearing width :   0.1154648343E-01
 
Energies :
 Fermi                       :     0.239769251396    
 sum of eigenvalues          :     -909.768199933    
 electron kinetic            :      1615.90534175    
 core electron kinetic       :      1440.44317473    
 Coulomb                     :     -3140.21430018    
 Coulomb potential           :     -2434.16099605    
 nuclear-nuclear             :     -222.318223068    
 electron-nuclear            :     -3401.63115817    
 Hartree                     :      483.735081061    
 Madelung                    :     -1923.13380215    
 xc potential                :     -91.5125456305    
 exchange                    :     -66.1391527069    
 correlation                 :     -3.01858986550    
 DFT+U                       :     0.189584486784    
 electron entropic           :    -0.207362151859E-01
 total energy                :     -1593.29785273    
 
Density of states at Fermi energy :    47.88554378    
 (states/Hartree/unit cell)
 
Estimated indirect band gap :   0.2189835626E-02
 from k-point     20 to k-point     29
Estimated direct band gap   :   0.1960267144E-01
 at k-point     26
 
Charges :
 core                        :    14.00000000    
 valence                     :    22.00000000    
 interstitial                :    1.909176826    
 muffin-tins (core leakage)
  species :    1 (Ni)
   atom    1                 :    26.80890665     (  0.7147395461E-03)
  species :    2 (O)
   atom    1                 :    7.281916521     (  0.4412560467E-07)
 total in muffin-tins        :    34.09082317    
 total calculated charge     :    36.00275360    
 total charge                :    36.00000000    
 error                       :   0.2753598031E-02
 
RMS change in Kohn-Sham potential (target) :   0.5587298588E-05 (  0.1000000000E-05)
Absolute change in total energy (target)   :   0.3331890753E-04 (  0.1000000000E-03)
 
Time (CPU seconds) :        38.43
 
+--------------------+
| Loop number :   25 |
+--------------------+
 
New smearing width :   0.1154647222E-01
 
Energies :
 Fermi                       :     0.239769582259    
 sum of eigenvalues          :     -909.768171314    
 electron kinetic            :      1615.90545413    
 core electron kinetic       :      1440.44319484    
 Coulomb                     :     -3140.21418547    
 Coulomb potential           :     -2434.16109102    
 nuclear-nuclear             :     -222.318223068    
 electron-nuclear            :     -3401.63083379    
 Hartree                     :      483.734871386    
 Madelung                    :     -1923.13363996    
 xc potential                :     -91.5125344216    
 exchange                    :     -66.1391444416    
 correlation                 :     -3.01858968377    
 DFT+U                       :     0.189584171821    
 electron entropic           :    -0.207362879347E-01
 total energy                :     -1593.29761759    
 
Density of states at Fermi energy :    47.88579778    
 (states/Hartree/unit cell)
 
Estimated indirect band gap :   0.2190123381E-02
 from k-point     20 to k-point     29
Estimated direct band gap   :   0.1960251882E-01
 at k-point     26
 
Charges :
 core                        :    14.00000000    
 valence                     :    22.00000000    
 interstitial                :    1.909177323    
 muffin-tins (core leakage)
  species :    1 (Ni)
   atom    1                 :    26.80889668     (  0.7147408713E-03)
  species :    2 (O)
   atom    1                 :    7.281925999     (  0.4414247036E-07)
 total in muffin-tins        :    34.09082268    
 total calculated charge     :    36.00275361    
 total charge                :    36.00000000    
 error                       :   0.2753607370E-02
 
RMS change in Kohn-Sham potential (target) :   0.4015221133E-05 (  0.1000000000E-05)
Absolute change in total energy (target)   :   0.2434734236E-03 (  0.1000000000E-03)
 
Time (CPU seconds) :        39.74
 
+--------------------+
| Loop number :   26 |
+--------------------+
 
New smearing width :   0.1154647144E-01
 
Energies :
 Fermi                       :     0.239769665370    
 sum of eigenvalues          :     -909.768184630    
 electron kinetic            :      1615.90541404    
 core electron kinetic       :      1440.44318979    
 Coulomb                     :     -3140.21424407    
 Coulomb potential           :     -2434.16105938    
 nuclear-nuclear             :     -222.318223068    
 electron-nuclear            :     -3401.63098263    
 Hartree                     :      483.734961625    
 Madelung                    :     -1923.13371438    
 xc potential                :     -91.5125392864    
 exchange                    :     -66.1391480368    
 correlation                 :     -3.01858975266    
 DFT+U                       :     0.189584285015    
 electron entropic           :    -0.207362403323E-01
 total energy                :     -1593.29771978    
 
Density of states at Fermi energy :    47.88570233    
 (states/Hartree/unit cell)
 
Estimated indirect band gap :   0.2190014817E-02
 from k-point     20 to k-point     29
Estimated direct band gap   :   0.1960257285E-01
 at k-point     26
 
Charges :
 core                        :    14.00000000    
 valence                     :    22.00000000    
 interstitial                :    1.909177626    
 muffin-tins (core leakage)
  species :    1 (Ni)
   atom    1                 :    26.80890049     (  0.7147403321E-03)
  species :    2 (O)
   atom    1                 :    7.281921880     (  0.4416052352E-07)
 total in muffin-tins        :    34.09082237    
 total calculated charge     :    36.00275359    
 total charge                :    36.00000000    
 error                       :   0.2753592242E-02
 
RMS change in Kohn-Sham potential (target) :   0.1974581785E-06 (  0.1000000000E-05)
Absolute change in total energy (target)   :   0.4132522213E-04 (  0.1000000000E-03)
 
Convergence targets achieved
 
Time (CPU seconds) :        40.91
 
+--------------------+
| Loop number :   27 |
+--------------------+
 
New smearing width :   0.1154647292E-01
 
Energies :
 Fermi                       :     0.239769688433    
 sum of eigenvalues          :     -909.768182766    
 electron kinetic            :      1615.90541988    
 core electron kinetic       :      1440.44319104    
 Coulomb                     :     -3140.21424150    
 Coulomb potential           :     -2434.16106371    
 nuclear-nuclear             :     -222.318223068    
 electron-nuclear            :     -3401.63097315    
 Hartree                     :      483.734954719    
 Madelung                    :     -1923.13370964    
 xc potential                :     -91.5125389332    
 exchange                    :     -66.1391477768    
 correlation                 :     -3.01858974639    
 DFT+U                       :     0.189584270298    
 electron entropic           :    -0.207362536345E-01
 total energy                :     -1593.29771113    
 
Density of states at Fermi energy :    47.88571497    
 (states/Hartree/unit cell)
 
Estimated indirect band gap :   0.2190025082E-02
 from k-point     20 to k-point     29
Estimated direct band gap   :   0.1960257086E-01
 at k-point     26
 
Charges :
 core                        :    14.00000000    
 valence                     :    22.00000000    
 interstitial                :    1.909177672    
 muffin-tins (core leakage)
  species :    1 (Ni)
   atom    1                 :    26.80890011     (  0.7147402920E-03)
  species :    2 (O)
   atom    1                 :    7.281922222     (  0.4413692907E-07)
 total in muffin-tins        :    34.09082233    
 total calculated charge     :    36.00275359    
 total charge                :    36.00000000    
 error                       :   0.2753593529E-02
 
+------------------------------+
| Self-consistent loop stopped |
+------------------------------+
 
Wrote STATE.OUT
 
Timings (CPU seconds) :
 initialisation                        :         0.78
 Hamiltonian and overlap matrix set up :        11.53
 first-variational eigenvalue equation :         4.46
 second-variational calculation        :        11.35
 charge density calculation            :        13.26
 potential calculation                 :         0.79
 total                                 :        42.17
 
+----------------------------+
| Elk version 8.8.26 stopped |
+----------------------------+
